LAMMPS (28 Mar 2023 - Development)
OMP_NUM_THREADS environment is not set. Defaulting to 1 thread. (src/comm.cpp:98)
  using 1 OpenMP thread(s) per MPI task
    units metal
    atom_style atomic
    atom_modify map array sort 0 0.0
    neigh_modify every 2 delay 10 check yes page 1000000 one 100000
    read_data  ../examples/systems/EAM-EAM-SIA-Fe/image_1.dat
Reading data file ...
  orthogonal box = (0 0 0) to (19.987184 19.987184 19.987184)
  1 by 1 by 1 MPI processor grid
  reading atoms ...
  687 atoms
  reading velocities ...
  687 velocities
  read_data CPU = 0.003 seconds
    pair_style    hybrid/overlay eam/fs eam/fs
    pair_coeff * * eam/fs 1 ../examples/systems/EAM-EAM-SIA-Fe/Fe.eam.fs Fe
    pair_coeff * * eam/fs 2 ../examples/systems/EAM-EAM-SIA-Fe/Fe_mm.eam.fs Fe
Reading eam/fs potential file ../examples/systems/EAM-EAM-SIA-Fe/Fe_mm.eam.fs with DATE: 2007-06-11
    run 0
WARNING: No fixes with time integration, atoms won't move (src/verlet.cpp:60)
Neighbor list info ...
  update: every = 2 steps, delay = 10 steps, check = yes
  max neighbors/atom: 100000, page size: 1000000
  master list distance cutoff = 7.8
  ghost atom cutoff = 7.8
  binsize = 3.9, bins = 6 6 6
  2 neighbor lists, perpetual/occasional/extra = 2 0 0
  (1) pair eam/fs, perpetual
      attributes: half, newton on
      pair build: half/bin/atomonly/newton
      stencil: half/bin/3d
      bin: standard
  (2) pair eam/fs, perpetual, trim from (1)
      attributes: half, newton on, cut 7.3
      pair build: trim
      stencil: none
      bin: none
Per MPI rank memory allocation (min/avg/max) = 11.09 | 11.09 | 11.09 Mbytes
   Step          Temp          E_pair         E_mol          TotEng         Press     
         0   2.3194503e-19 -5656.8657      0             -5656.8657      6836.4165    
Loop time of 5e-07 on 1 procs for 0 steps with 687 atoms

400.0% CPU use with 1 MPI tasks x 1 OpenMP threads

MPI task timing breakdown:
Section |  min time  |  avg time  |  max time  |%varavg| %total
---------------------------------------------------------------
Pair    | 0          | 0          | 0          |   0.0 |  0.00
Neigh   | 0          | 0          | 0          |   0.0 |  0.00
Comm    | 0          | 0          | 0          |   0.0 |  0.00
Output  | 0          | 0          | 0          |   0.0 |  0.00
Modify  | 0          | 0          | 0          |   0.0 |  0.00
Other   |            | 5e-07      |            |       |100.00

Nlocal:            687 ave         687 max         687 min
Histogram: 1 0 0 0 0 0 0 0 0 0
Nghost:           3239 ave        3239 max        3239 min
Histogram: 1 0 0 0 0 0 0 0 0 0
Neighs:          57787 ave       57787 max       57787 min
Histogram: 1 0 0 0 0 0 0 0 0 0

Total # of neighbors = 57787
Ave neighs/atom = 84.114993
Neighbor list builds = 0
Dangerous builds = 0
            delete_atoms group all
Deleted 687 atoms, new total = 0
            read_data ../examples/systems/EAM-EAM-SIA-Fe/image_1.dat add merge
Reading data file ...
  orthogonal box = (0 0 0) to (19.987184 19.987184 19.987184)
  1 by 1 by 1 MPI processor grid
  reading atoms ...
  687 atoms
  reading velocities ...
  687 velocities
  read_data CPU = 0.004 seconds
        
            delete_atoms group all
Deleted 687 atoms, new total = 0
            read_data ../examples/systems/EAM-EAM-SIA-Fe/image_2.dat add merge
Reading data file ...
  orthogonal box = (0 0 0) to (19.987184 19.987184 19.987184)
  1 by 1 by 1 MPI processor grid
  reading atoms ...
  687 atoms
  reading velocities ...
  687 velocities
  read_data CPU = 0.003 seconds
        
            delete_atoms group all
Deleted 687 atoms, new total = 0
            read_data ../examples/systems/EAM-EAM-SIA-Fe/image_3.dat add merge
Reading data file ...
  orthogonal box = (0 0 0) to (19.987184 19.987184 19.987184)
  1 by 1 by 1 MPI processor grid
  reading atoms ...
  687 atoms
  reading velocities ...
  687 velocities
  read_data CPU = 0.003 seconds
        
            delete_atoms group all
Deleted 687 atoms, new total = 0
            read_data ../examples/systems/EAM-EAM-SIA-Fe/image_4.dat add merge
Reading data file ...
  orthogonal box = (0 0 0) to (19.987184 19.987184 19.987184)
  1 by 1 by 1 MPI processor grid
  reading atoms ...
  687 atoms
  reading velocities ...
  687 velocities
  read_data CPU = 0.003 seconds
        
            delete_atoms group all
Deleted 687 atoms, new total = 0
            read_data ../examples/systems/EAM-EAM-SIA-Fe/image_5.dat add merge
Reading data file ...
  orthogonal box = (0 0 0) to (19.987184 19.987184 19.987184)
  1 by 1 by 1 MPI processor grid
  reading atoms ...
  687 atoms
  reading velocities ...
  687 velocities
  read_data CPU = 0.004 seconds
        
            delete_atoms group all
Deleted 687 atoms, new total = 0
            read_data ../examples/systems/EAM-EAM-SIA-Fe/image_6.dat add merge
Reading data file ...
  orthogonal box = (0 0 0) to (19.987184 19.987184 19.987184)
  1 by 1 by 1 MPI processor grid
  reading atoms ...
  687 atoms
  reading velocities ...
  687 velocities
  read_data CPU = 0.004 seconds
        
            delete_atoms group all
Deleted 687 atoms, new total = 0
            read_data ../examples/systems/EAM-EAM-SIA-Fe/image_7.dat add merge
Reading data file ...
  orthogonal box = (0 0 0) to (19.987184 19.987184 19.987184)
  1 by 1 by 1 MPI processor grid
  reading atoms ...
  687 atoms
  reading velocities ...
  687 velocities
  read_data CPU = 0.004 seconds
        
            delete_atoms group all
Deleted 687 atoms, new total = 0
            read_data ../examples/systems/EAM-EAM-SIA-Fe/image_8.dat add merge
Reading data file ...
  orthogonal box = (0 0 0) to (19.987184 19.987184 19.987184)
  1 by 1 by 1 MPI processor grid
  reading atoms ...
  687 atoms
  reading velocities ...
  687 velocities
  read_data CPU = 0.003 seconds
        
            delete_atoms group all
Deleted 687 atoms, new total = 0
            read_data ../examples/systems/EAM-EAM-SIA-Fe/image_9.dat add merge
Reading data file ...
  orthogonal box = (0 0 0) to (19.987184 19.987184 19.987184)
  1 by 1 by 1 MPI processor grid
  reading atoms ...
  687 atoms
  reading velocities ...
  687 velocities
  read_data CPU = 0.003 seconds
        
            change_box all x scale 1.0 y scale 1.0 z scale 1.0
Changing box ...
  orthogonal box = (0 0 0) to (19.987184 19.987184 19.987184)
  orthogonal box = (0 0 0) to (19.987184 19.987184 19.987184)
  orthogonal box = (0 0 0) to (19.987184 19.987184 19.987184)
            run 0
WARNING: No fixes with time integration, atoms won't move (src/verlet.cpp:60)
Per MPI rank memory allocation (min/avg/max) = 11.09 | 11.09 | 11.09 Mbytes
   Step          Temp          E_pair         E_mol          TotEng         Press     
         0   2.3196587e-19 -5656.8657      0             -5656.8657      6836.4165    
Loop time of 7.09e-07 on 1 procs for 0 steps with 687 atoms

141.0% CPU use with 1 MPI tasks x 1 OpenMP threads

MPI task timing breakdown:
Section |  min time  |  avg time  |  max time  |%varavg| %total
---------------------------------------------------------------
Pair    | 0          | 0          | 0          |   0.0 |  0.00
Neigh   | 0          | 0          | 0          |   0.0 |  0.00
Comm    | 0          | 0          | 0          |   0.0 |  0.00
Output  | 0          | 0          | 0          |   0.0 |  0.00
Modify  | 0          | 0          | 0          |   0.0 |  0.00
Other   |            | 7.09e-07   |            |       |100.00

Nlocal:            687 ave         687 max         687 min
Histogram: 1 0 0 0 0 0 0 0 0 0
Nghost:           3239 ave        3239 max        3239 min
Histogram: 1 0 0 0 0 0 0 0 0 0
Neighs:          57787 ave       57787 max       57787 min
Histogram: 1 0 0 0 0 0 0 0 0 0

Total # of neighbors = 57787
Ave neighs/atom = 84.114993
Neighbor list builds = 0
Dangerous builds = 0
            fix __pafipath all property/atom d_ux d_uy d_uz d_nx d_ny d_nz d_dnx d_dny d_dnz
            run 0
WARNING: No fixes with time integration, atoms won't move (src/verlet.cpp:60)
Per MPI rank memory allocation (min/avg/max) = 11.22 | 11.22 | 11.22 Mbytes
   Step          Temp          E_pair         E_mol          TotEng         Press     
         0   2.3196587e-19 -5656.8657      0             -5656.8657      6836.4165    
Loop time of 4.17e-07 on 1 procs for 0 steps with 687 atoms

239.8% CPU use with 1 MPI tasks x 1 OpenMP threads

MPI task timing breakdown:
Section |  min time  |  avg time  |  max time  |%varavg| %total
---------------------------------------------------------------
Pair    | 0          | 0          | 0          |   0.0 |  0.00
Neigh   | 0          | 0          | 0          |   0.0 |  0.00
Comm    | 0          | 0          | 0          |   0.0 |  0.00
Output  | 0          | 0          | 0          |   0.0 |  0.00
Modify  | 0          | 0          | 0          |   0.0 |  0.00
Other   |            | 4.17e-07   |            |       |100.00

Nlocal:            687 ave         687 max         687 min
Histogram: 1 0 0 0 0 0 0 0 0 0
Nghost:           3239 ave        3239 max        3239 min
Histogram: 1 0 0 0 0 0 0 0 0 0
Neighs:          57787 ave       57787 max       57787 min
Histogram: 1 0 0 0 0 0 0 0 0 0

Total # of neighbors = 57787
Ave neighs/atom = 84.114993
Neighbor list builds = 0
Dangerous builds = 0
run 0
WARNING: No fixes with time integration, atoms won't move (src/verlet.cpp:60)
Per MPI rank memory allocation (min/avg/max) = 11.22 | 11.22 | 11.22 Mbytes
   Step          Temp          E_pair         E_mol          TotEng         Press     
         0   2.3196587e-19 -5656.8657      0             -5656.8657      6836.4165    
Loop time of 4.17e-07 on 1 procs for 0 steps with 687 atoms

239.8% CPU use with 1 MPI tasks x 1 OpenMP threads

MPI task timing breakdown:
Section |  min time  |  avg time  |  max time  |%varavg| %total
---------------------------------------------------------------
Pair    | 0          | 0          | 0          |   0.0 |  0.00
Neigh   | 0          | 0          | 0          |   0.0 |  0.00
Comm    | 0          | 0          | 0          |   0.0 |  0.00
Output  | 0          | 0          | 0          |   0.0 |  0.00
Modify  | 0          | 0          | 0          |   0.0 |  0.00
Other   |            | 4.17e-07   |            |       |100.00

Nlocal:            687 ave         687 max         687 min
Histogram: 1 0 0 0 0 0 0 0 0 0
Nghost:           3239 ave        3239 max        3239 min
Histogram: 1 0 0 0 0 0 0 0 0 0
Neighs:          57787 ave       57787 max       57787 min
Histogram: 1 0 0 0 0 0 0 0 0 0

Total # of neighbors = 57787
Ave neighs/atom = 84.114993
Neighbor list builds = 0
Dangerous builds = 0
            compute __pafipath all property/atom d_ux d_uy d_uz d_nx d_ny d_nz d_dnx d_dny d_dnz
            run 0
WARNING: No fixes with time integration, atoms won't move (src/verlet.cpp:60)
Per MPI rank memory allocation (min/avg/max) = 11.22 | 11.22 | 11.22 Mbytes
   Step          Temp          E_pair         E_mol          TotEng         Press     
         0   2.3196587e-19 -5656.8657      0             -5656.8657      6836.4165    
Loop time of 4.17e-07 on 1 procs for 0 steps with 687 atoms

239.8% CPU use with 1 MPI tasks x 1 OpenMP threads

MPI task timing breakdown:
Section |  min time  |  avg time  |  max time  |%varavg| %total
---------------------------------------------------------------
Pair    | 0          | 0          | 0          |   0.0 |  0.00
Neigh   | 0          | 0          | 0          |   0.0 |  0.00
Comm    | 0          | 0          | 0          |   0.0 |  0.00
Output  | 0          | 0          | 0          |   0.0 |  0.00
Modify  | 0          | 0          | 0          |   0.0 |  0.00
Other   |            | 4.17e-07   |            |       |100.00

Nlocal:            687 ave         687 max         687 min
Histogram: 1 0 0 0 0 0 0 0 0 0
Nghost:           3239 ave        3239 max        3239 min
Histogram: 1 0 0 0 0 0 0 0 0 0
Neighs:          57787 ave       57787 max       57787 min
Histogram: 1 0 0 0 0 0 0 0 0 0

Total # of neighbors = 57787
Ave neighs/atom = 84.114993
Neighbor list builds = 0
Dangerous builds = 0
    variable l1 equal 1.0-0.0
    variable l2 equal 0.0+0.0
    run 0
WARNING: No fixes with time integration, atoms won't move (src/verlet.cpp:60)
Per MPI rank memory allocation (min/avg/max) = 11.22 | 11.22 | 11.22 Mbytes
   Step          Temp          E_pair         E_mol          TotEng         Press     
         0   2.3196587e-19 -5656.8657      0             -5656.8657      6836.4165    
Loop time of 4.16e-07 on 1 procs for 0 steps with 687 atoms

240.4% CPU use with 1 MPI tasks x 1 OpenMP threads

MPI task timing breakdown:
Section |  min time  |  avg time  |  max time  |%varavg| %total
---------------------------------------------------------------
Pair    | 0          | 0          | 0          |   0.0 |  0.00
Neigh   | 0          | 0          | 0          |   0.0 |  0.00
Comm    | 0          | 0          | 0          |   0.0 |  0.00
Output  | 0          | 0          | 0          |   0.0 |  0.00
Modify  | 0          | 0          | 0          |   0.0 |  0.00
Other   |            | 4.16e-07   |            |       |100.00

Nlocal:            687 ave         687 max         687 min
Histogram: 1 0 0 0 0 0 0 0 0 0
Nghost:           3239 ave        3239 max        3239 min
Histogram: 1 0 0 0 0 0 0 0 0 0
Neighs:          57787 ave       57787 max       57787 min
Histogram: 1 0 0 0 0 0 0 0 0 0

Total # of neighbors = 57787
Ave neighs/atom = 84.114993
Neighbor list builds = 0
Dangerous builds = 0
    fix escale1 all adapt 1 pair eam/fs:1 scale * * v_l1
    fix escale2 all adapt 1 pair eam/fs:2 scale * * v_l2
    run 0
WARNING: No fixes with time integration, atoms won't move (src/verlet.cpp:60)
Per MPI rank memory allocation (min/avg/max) = 11.22 | 11.22 | 11.22 Mbytes
   Step          Temp          E_pair         E_mol          TotEng         Press     
         0   2.3196587e-19 -2828.3785      0             -2828.3785      3828.4068    
Loop time of 4.58e-07 on 1 procs for 0 steps with 687 atoms

218.3% CPU use with 1 MPI tasks x 1 OpenMP threads

MPI task timing breakdown:
Section |  min time  |  avg time  |  max time  |%varavg| %total
---------------------------------------------------------------
Pair    | 0          | 0          | 0          |   0.0 |  0.00
Neigh   | 0          | 0          | 0          |   0.0 |  0.00
Comm    | 0          | 0          | 0          |   0.0 |  0.00
Output  | 0          | 0          | 0          |   0.0 |  0.00
Modify  | 0          | 0          | 0          |   0.0 |  0.00
Other   |            | 4.58e-07   |            |       |100.00

Nlocal:            687 ave         687 max         687 min
Histogram: 1 0 0 0 0 0 0 0 0 0
Nghost:           3239 ave        3239 max        3239 min
Histogram: 1 0 0 0 0 0 0 0 0 0
Neighs:          57787 ave       57787 max       57787 min
Histogram: 1 0 0 0 0 0 0 0 0 0

Total # of neighbors = 57787
Ave neighs/atom = 84.114993
Neighbor list builds = 0
Dangerous builds = 0
    compute V_1 all pair eam/fs 1
    compute V_2 all pair eam/fs 2
    variable V_1 equal (c_V_1/(0.000001+v_l1))
    variable V_2 equal (c_V_2/(0.000001+v_l2))
    variable dV equal v_V_2-v_V_1
            change_box all x scale 1.0 y scale 1.0 z scale 1.0
Changing box ...
  orthogonal box = (0 0 0) to (19.987184 19.987184 19.987184)
  orthogonal box = (0 0 0) to (19.987184 19.987184 19.987184)
  orthogonal box = (0 0 0) to (19.987184 19.987184 19.987184)
            run 0
WARNING: No fixes with time integration, atoms won't move (src/verlet.cpp:60)
Per MPI rank memory allocation (min/avg/max) = 11.22 | 11.22 | 11.22 Mbytes
   Step          Temp          E_pair         E_mol          TotEng         Press     
         0   2.3196587e-19 -2828.3785      0             -2828.3785      3828.4068    
Loop time of 4.16e-07 on 1 procs for 0 steps with 687 atoms

240.4% CPU use with 1 MPI tasks x 1 OpenMP threads

MPI task timing breakdown:
Section |  min time  |  avg time  |  max time  |%varavg| %total
---------------------------------------------------------------
Pair    | 0          | 0          | 0          |   0.0 |  0.00
Neigh   | 0          | 0          | 0          |   0.0 |  0.00
Comm    | 0          | 0          | 0          |   0.0 |  0.00
Output  | 0          | 0          | 0          |   0.0 |  0.00
Modify  | 0          | 0          | 0          |   0.0 |  0.00
Other   |            | 4.16e-07   |            |       |100.00

Nlocal:            687 ave         687 max         687 min
Histogram: 1 0 0 0 0 0 0 0 0 0
Nghost:           3239 ave        3239 max        3239 min
Histogram: 1 0 0 0 0 0 0 0 0 0
Neighs:          57787 ave       57787 max       57787 min
Histogram: 1 0 0 0 0 0 0 0 0 0

Total # of neighbors = 57787
Ave neighs/atom = 84.114993
Neighbor list builds = 0
Dangerous builds = 0
run 0
WARNING: No fixes with time integration, atoms won't move (src/verlet.cpp:60)
Per MPI rank memory allocation (min/avg/max) = 11.22 | 11.22 | 11.22 Mbytes
   Step          Temp          E_pair         E_mol          TotEng         Press     
         0   2.3196587e-19 -2828.3785      0             -2828.3785      3828.4068    
Loop time of 4.17e-07 on 1 procs for 0 steps with 687 atoms

0.0% CPU use with 1 MPI tasks x 1 OpenMP threads

MPI task timing breakdown:
Section |  min time  |  avg time  |  max time  |%varavg| %total
---------------------------------------------------------------
Pair    | 0          | 0          | 0          |   0.0 |  0.00
Neigh   | 0          | 0          | 0          |   0.0 |  0.00
Comm    | 0          | 0          | 0          |   0.0 |  0.00
Output  | 0          | 0          | 0          |   0.0 |  0.00
Modify  | 0          | 0          | 0          |   0.0 |  0.00
Other   |            | 4.17e-07   |            |       |100.00

Nlocal:            687 ave         687 max         687 min
Histogram: 1 0 0 0 0 0 0 0 0 0
Nghost:           3239 ave        3239 max        3239 min
Histogram: 1 0 0 0 0 0 0 0 0 0
Neighs:          57787 ave       57787 max       57787 min
Histogram: 1 0 0 0 0 0 0 0 0 0

Total # of neighbors = 57787
Ave neighs/atom = 84.114993
Neighbor list builds = 0
Dangerous builds = 0
fix pafi all pafi __pafipath 0.0 0.05 4962 overdamped 0 com 1
fix pafi compute name,style: __pafipath,property/atom
run 0

CITE-CITE-CITE-CITE-CITE-CITE-CITE-CITE-CITE-CITE-CITE-CITE-CITE

Your simulation uses code contributions which should be cited:

- citation for fix pafi: doi:10.1103/PhysRevLett.120.135503

@article{SwinburneMarinica2018,
author={T. D. Swinburne and M. C. Marinica},
title={Unsupervised Calculation of Free Energy Barriers in Large
   Crystalline Systems},
journal={Physical Review Letters},
volume={120},
number={13},
pages={135503},
year={2018},
publisher={APS}
}
Recommended to be coupled with PAFI++ code:
https://github.com/tomswinburne/pafi
CITE-CITE-CITE-CITE-CITE-CITE-CITE-CITE-CITE-CITE-CITE-CITE-CITE

Per MPI rank memory allocation (min/avg/max) = 12.72 | 12.72 | 12.72 Mbytes
   Step          Temp          E_pair         E_mol          TotEng         Press     
         0   2.0369479e-19 -2828.3785      0             -2828.3785      3828.4068    
Loop time of 4.17e-07 on 1 procs for 0 steps with 687 atoms

239.8% CPU use with 1 MPI tasks x 1 OpenMP threads

MPI task timing breakdown:
Section |  min time  |  avg time  |  max time  |%varavg| %total
---------------------------------------------------------------
Pair    | 0          | 0          | 0          |   0.0 |  0.00
Neigh   | 0          | 0          | 0          |   0.0 |  0.00
Comm    | 0          | 0          | 0          |   0.0 |  0.00
Output  | 0          | 0          | 0          |   0.0 |  0.00
Modify  | 0          | 0          | 0          |   0.0 |  0.00
Other   |            | 4.17e-07   |            |       |100.00

Nlocal:            687 ave         687 max         687 min
Histogram: 1 0 0 0 0 0 0 0 0 0
Nghost:           3239 ave        3239 max        3239 min
Histogram: 1 0 0 0 0 0 0 0 0 0
Neighs:          57787 ave       57787 max       57787 min
Histogram: 1 0 0 0 0 0 0 0 0 0

Total # of neighbors = 57787
Ave neighs/atom = 84.114993
Neighbor list builds = 0
Dangerous builds = 0
            reset_timestep 0
            fix __ae all ave/time 1 10 10 c_thermo_temp
            run 10
Per MPI rank memory allocation (min/avg/max) = 12.72 | 12.72 | 12.72 Mbytes
   Step          Temp          E_pair         E_mol          TotEng         Press     
         0   2.0369479e-19 -2828.3785      0             -2828.3785      3828.4068    
        10   2.3317086e-19 -2828.3785      0             -2828.3785      3828.4068    
Loop time of 0.0147855 on 1 procs for 10 steps with 687 atoms

Performance: 58.435 ns/day, 0.411 hours/ns, 676.336 timesteps/s, 464.643 katom-step/s
302.4% CPU use with 1 MPI tasks x 1 OpenMP threads

MPI task timing breakdown:
Section |  min time  |  avg time  |  max time  |%varavg| %total
---------------------------------------------------------------
Pair    | 0.014206   | 0.014206   | 0.014206   |   0.0 | 96.08
Neigh   | 0          | 0          | 0          |   0.0 |  0.00
Comm    | 8.0334e-05 | 8.0334e-05 | 8.0334e-05 |   0.0 |  0.54
Output  | 3.875e-06  | 3.875e-06  | 3.875e-06  |   0.0 |  0.03
Modify  | 0.00048621 | 0.00048621 | 0.00048621 |   0.0 |  3.29
Other   |            | 9.499e-06  |            |       |  0.06

Nlocal:            687 ave         687 max         687 min
Histogram: 1 0 0 0 0 0 0 0 0 0
Nghost:           3239 ave        3239 max        3239 min
Histogram: 1 0 0 0 0 0 0 0 0 0
Neighs:          57787 ave       57787 max       57787 min
Histogram: 1 0 0 0 0 0 0 0 0 0

Total # of neighbors = 57787
Ave neighs/atom = 84.114993
Neighbor list builds = 0
Dangerous builds = 0
        
            unfix __ae
            run 0
Per MPI rank memory allocation (min/avg/max) = 12.72 | 12.72 | 12.72 Mbytes
   Step          Temp          E_pair         E_mol          TotEng         Press     
        10   2.3317086e-19 -2828.3785      0             -2828.3785      3828.4068    
Loop time of 4.17e-07 on 1 procs for 0 steps with 687 atoms

239.8% CPU use with 1 MPI tasks x 1 OpenMP threads

MPI task timing breakdown:
Section |  min time  |  avg time  |  max time  |%varavg| %total
---------------------------------------------------------------
Pair    | 0          | 0          | 0          |   0.0 |  0.00
Neigh   | 0          | 0          | 0          |   0.0 |  0.00
Comm    | 0          | 0          | 0          |   0.0 |  0.00
Output  | 0          | 0          | 0          |   0.0 |  0.00
Modify  | 0          | 0          | 0          |   0.0 |  0.00
Other   |            | 4.17e-07   |            |       |100.00

Nlocal:            687 ave         687 max         687 min
Histogram: 1 0 0 0 0 0 0 0 0 0
Nghost:           3239 ave        3239 max        3239 min
Histogram: 1 0 0 0 0 0 0 0 0 0
Neighs:          57787 ave       57787 max       57787 min
Histogram: 1 0 0 0 0 0 0 0 0 0

Total # of neighbors = 57787
Ave neighs/atom = 84.114993
Neighbor list builds = 0
Dangerous builds = 0
            reset_timestep 0
            fix __ae all ave/time 1 50 50 c_thermo_temp
            
            fix avepafi all ave/time 1 50 50 f_pafi[*]
        
            #fix dV all ave/time 1 50 50 v_dV
            run 50
Per MPI rank memory allocation (min/avg/max) = 12.72 | 12.72 | 12.72 Mbytes
   Step          Temp          E_pair         E_mol          TotEng         Press     
         0   2.3317086e-19 -2828.3785      0             -2828.3785      3828.4068    
        50   2.3701235e-18 -2828.3785      0             -2828.3785      3828.4068    
Loop time of 0.0799379 on 1 procs for 50 steps with 687 atoms

Performance: 54.042 ns/day, 0.444 hours/ns, 625.486 timesteps/s, 429.709 katom-step/s
295.0% CPU use with 1 MPI tasks x 1 OpenMP threads

MPI task timing breakdown:
Section |  min time  |  avg time  |  max time  |%varavg| %total
---------------------------------------------------------------
Pair    | 0.076903   | 0.076903   | 0.076903   |   0.0 | 96.20
Neigh   | 0          | 0          | 0          |   0.0 |  0.00
Comm    | 0.00041267 | 0.00041267 | 0.00041267 |   0.0 |  0.52
Output  | 9.709e-06  | 9.709e-06  | 9.709e-06  |   0.0 |  0.01
Modify  | 0.0025378  | 0.0025378  | 0.0025378  |   0.0 |  3.17
Other   |            | 7.508e-05  |            |       |  0.09

Nlocal:            687 ave         687 max         687 min
Histogram: 1 0 0 0 0 0 0 0 0 0
Nghost:           3239 ave        3239 max        3239 min
Histogram: 1 0 0 0 0 0 0 0 0 0
Neighs:          57787 ave       57787 max       57787 min
Histogram: 1 0 0 0 0 0 0 0 0 0

Total # of neighbors = 57787
Ave neighs/atom = 84.114993
Neighbor list builds = 0
Dangerous builds = 0
        
unfix avepafi
            unfix __ae
            run 0
Per MPI rank memory allocation (min/avg/max) = 12.72 | 12.72 | 12.72 Mbytes
   Step          Temp          E_pair         E_mol          TotEng         Press     
        50   2.3701235e-18 -2828.3785      0             -2828.3785      3828.4068    
Loop time of 5.83e-07 on 1 procs for 0 steps with 687 atoms

343.1% CPU use with 1 MPI tasks x 1 OpenMP threads

MPI task timing breakdown:
Section |  min time  |  avg time  |  max time  |%varavg| %total
---------------------------------------------------------------
Pair    | 0          | 0          | 0          |   0.0 |  0.00
Neigh   | 0          | 0          | 0          |   0.0 |  0.00
Comm    | 0          | 0          | 0          |   0.0 |  0.00
Output  | 0          | 0          | 0          |   0.0 |  0.00
Modify  | 0          | 0          | 0          |   0.0 |  0.00
Other   |            | 5.83e-07   |            |       |100.00

Nlocal:            687 ave         687 max         687 min
Histogram: 1 0 0 0 0 0 0 0 0 0
Nghost:           3239 ave        3239 max        3239 min
Histogram: 1 0 0 0 0 0 0 0 0 0
Neighs:          57787 ave       57787 max       57787 min
Histogram: 1 0 0 0 0 0 0 0 0 0

Total # of neighbors = 57787
Ave neighs/atom = 84.114993
Neighbor list builds = 0
Dangerous builds = 0
            min_style fire
            minimize 0 0.0001 1000 1000
Switching to 'neigh_modify every 1 delay 0 check yes' setting during minimization
  Parameters for fire:
    dmax  delaystep dtgrow dtshrink alpha0 alphashrink tmax tmin   integrator   halfstepback   abcfire  
     0.1     20      1.1     0.5     0.25     0.99      10  0.02 eulerimplicit      yes          no     
Per MPI rank memory allocation (min/avg/max) = 12.72 | 12.72 | 12.72 Mbytes
   Step          Temp          E_pair         E_mol          TotEng         Press     
        50   0             -2828.3785      0             -2828.3785      3828.4068    
        51   1.6821874e-21 -2828.3785      0             -2828.3785      3828.4068    
Loop time of 0.00546533 on 1 procs for 1 steps with 687 atoms

169.6% CPU use with 1 MPI tasks x 1 OpenMP threads

Minimization stats:
  Stopping criterion = force tolerance
  Energy initial, next-to-last, final = 
     -2828.37851624648  -2828.37851624648  -2828.37851624648
  Force two-norm initial, final = 1.3140972e-09 1.3139269e-09
  Force max component initial, final = 1.4635147e-10 1.4631467e-10
  Final line search alpha, max atom move = 0 0
  Iterations, force evaluations = 1 2

MPI task timing breakdown:
Section |  min time  |  avg time  |  max time  |%varavg| %total
---------------------------------------------------------------
Pair    | 0.0053393  | 0.0053393  | 0.0053393  |   0.0 | 97.69
Neigh   | 0          | 0          | 0          |   0.0 |  0.00
Comm    | 2.675e-05  | 2.675e-05  | 2.675e-05  |   0.0 |  0.49
Output  | 0          | 0          | 0          |   0.0 |  0.00
Modify  | 5.9959e-05 | 5.9959e-05 | 5.9959e-05 |   0.0 |  1.10
Other   |            | 3.929e-05  |            |       |  0.72

Nlocal:            687 ave         687 max         687 min
Histogram: 1 0 0 0 0 0 0 0 0 0
Nghost:           3239 ave        3239 max        3239 min
Histogram: 1 0 0 0 0 0 0 0 0 0
Neighs:          57787 ave       57787 max       57787 min
Histogram: 1 0 0 0 0 0 0 0 0 0

Total # of neighbors = 57787
Ave neighs/atom = 84.114993
Neighbor list builds = 0
Dangerous builds = 0
        
unfix pafi
    variable dV delete
    uncompute V_1
    uncompute V_2
    unfix escale1
    unfix escale2
            change_box all x scale 1.0 y scale 1.0 z scale 1.0
Changing box ...
  orthogonal box = (0 0 0) to (19.987184 19.987184 19.987184)
  orthogonal box = (0 0 0) to (19.987184 19.987184 19.987184)
  orthogonal box = (0 0 0) to (19.987184 19.987184 19.987184)
            run 0
WARNING: No fixes with time integration, atoms won't move (src/verlet.cpp:60)
Per MPI rank memory allocation (min/avg/max) = 12.34 | 12.34 | 12.34 Mbytes
   Step          Temp          E_pair         E_mol          TotEng         Press     
        51   1.6821874e-21 -2828.3785      0             -2828.3785      3828.4068    
Loop time of 5.42e-07 on 1 procs for 0 steps with 687 atoms

184.5% CPU use with 1 MPI tasks x 1 OpenMP threads

MPI task timing breakdown:
Section |  min time  |  avg time  |  max time  |%varavg| %total
---------------------------------------------------------------
Pair    | 0          | 0          | 0          |   0.0 |  0.00
Neigh   | 0          | 0          | 0          |   0.0 |  0.00
Comm    | 0          | 0          | 0          |   0.0 |  0.00
Output  | 0          | 0          | 0          |   0.0 |  0.00
Modify  | 0          | 0          | 0          |   0.0 |  0.00
Other   |            | 5.42e-07   |            |       |100.00

Nlocal:            687 ave         687 max         687 min
Histogram: 1 0 0 0 0 0 0 0 0 0
Nghost:           3239 ave        3239 max        3239 min
Histogram: 1 0 0 0 0 0 0 0 0 0
Neighs:          57787 ave       57787 max       57787 min
Histogram: 1 0 0 0 0 0 0 0 0 0

Total # of neighbors = 57787
Ave neighs/atom = 84.114993
Neighbor list builds = 0
Dangerous builds = 0
run 0
WARNING: No fixes with time integration, atoms won't move (src/verlet.cpp:60)
Per MPI rank memory allocation (min/avg/max) = 12.34 | 12.34 | 12.34 Mbytes
   Step          Temp          E_pair         E_mol          TotEng         Press     
        51   1.6821874e-21 -2828.3785      0             -2828.3785      3828.4068    
Loop time of 7.09e-07 on 1 procs for 0 steps with 687 atoms

282.1% CPU use with 1 MPI tasks x 1 OpenMP threads

MPI task timing breakdown:
Section |  min time  |  avg time  |  max time  |%varavg| %total
---------------------------------------------------------------
Pair    | 0          | 0          | 0          |   0.0 |  0.00
Neigh   | 0          | 0          | 0          |   0.0 |  0.00
Comm    | 0          | 0          | 0          |   0.0 |  0.00
Output  | 0          | 0          | 0          |   0.0 |  0.00
Modify  | 0          | 0          | 0          |   0.0 |  0.00
Other   |            | 7.09e-07   |            |       |100.00

Nlocal:            687 ave         687 max         687 min
Histogram: 1 0 0 0 0 0 0 0 0 0
Nghost:           3239 ave        3239 max        3239 min
Histogram: 1 0 0 0 0 0 0 0 0 0
Neighs:          57787 ave       57787 max       57787 min
Histogram: 1 0 0 0 0 0 0 0 0 0

Total # of neighbors = 57787
Ave neighs/atom = 84.114993
Neighbor list builds = 0
Dangerous builds = 0
            change_box all x scale 1.0 y scale 1.0 z scale 1.0
Changing box ...
  orthogonal box = (0 0 0) to (19.987184 19.987184 19.987184)
  orthogonal box = (0 0 0) to (19.987184 19.987184 19.987184)
  orthogonal box = (0 0 0) to (19.987184 19.987184 19.987184)
            run 0
WARNING: No fixes with time integration, atoms won't move (src/verlet.cpp:60)
Per MPI rank memory allocation (min/avg/max) = 12.34 | 12.34 | 12.34 Mbytes
   Step          Temp          E_pair         E_mol          TotEng         Press     
        51   1.6821874e-21 -2828.3785      0             -2828.3785      3828.4068    
Loop time of 6.25e-07 on 1 procs for 0 steps with 687 atoms

160.0% CPU use with 1 MPI tasks x 1 OpenMP threads

MPI task timing breakdown:
Section |  min time  |  avg time  |  max time  |%varavg| %total
---------------------------------------------------------------
Pair    | 0          | 0          | 0          |   0.0 |  0.00
Neigh   | 0          | 0          | 0          |   0.0 |  0.00
Comm    | 0          | 0          | 0          |   0.0 |  0.00
Output  | 0          | 0          | 0          |   0.0 |  0.00
Modify  | 0          | 0          | 0          |   0.0 |  0.00
Other   |            | 6.25e-07   |            |       |100.00

Nlocal:            687 ave         687 max         687 min
Histogram: 1 0 0 0 0 0 0 0 0 0
Nghost:           3239 ave        3239 max        3239 min
Histogram: 1 0 0 0 0 0 0 0 0 0
Neighs:          57787 ave       57787 max       57787 min
Histogram: 1 0 0 0 0 0 0 0 0 0

Total # of neighbors = 57787
Ave neighs/atom = 84.114993
Neighbor list builds = 0
Dangerous builds = 0
run 0
WARNING: No fixes with time integration, atoms won't move (src/verlet.cpp:60)
Per MPI rank memory allocation (min/avg/max) = 12.34 | 12.34 | 12.34 Mbytes
   Step          Temp          E_pair         E_mol          TotEng         Press     
        51   1.6821874e-21 -2828.3785      0             -2828.3785      3828.4068    
Loop time of 5.84e-07 on 1 procs for 0 steps with 687 atoms

171.2% CPU use with 1 MPI tasks x 1 OpenMP threads

MPI task timing breakdown:
Section |  min time  |  avg time  |  max time  |%varavg| %total
---------------------------------------------------------------
Pair    | 0          | 0          | 0          |   0.0 |  0.00
Neigh   | 0          | 0          | 0          |   0.0 |  0.00
Comm    | 0          | 0          | 0          |   0.0 |  0.00
Output  | 0          | 0          | 0          |   0.0 |  0.00
Modify  | 0          | 0          | 0          |   0.0 |  0.00
Other   |            | 5.84e-07   |            |       |100.00

Nlocal:            687 ave         687 max         687 min
Histogram: 1 0 0 0 0 0 0 0 0 0
Nghost:           3239 ave        3239 max        3239 min
Histogram: 1 0 0 0 0 0 0 0 0 0
Neighs:          57787 ave       57787 max       57787 min
Histogram: 1 0 0 0 0 0 0 0 0 0

Total # of neighbors = 57787
Ave neighs/atom = 84.114993
Neighbor list builds = 0
Dangerous builds = 0
    variable l1 equal 1.0-0.25
    variable l2 equal 0.0+0.25
    run 0
WARNING: No fixes with time integration, atoms won't move (src/verlet.cpp:60)
Per MPI rank memory allocation (min/avg/max) = 12.34 | 12.34 | 12.34 Mbytes
   Step          Temp          E_pair         E_mol          TotEng         Press     
        51   1.6821874e-21 -2828.3785      0             -2828.3785      3828.4068    
Loop time of 4.59e-07 on 1 procs for 0 steps with 687 atoms

217.9% CPU use with 1 MPI tasks x 1 OpenMP threads

MPI task timing breakdown:
Section |  min time  |  avg time  |  max time  |%varavg| %total
---------------------------------------------------------------
Pair    | 0          | 0          | 0          |   0.0 |  0.00
Neigh   | 0          | 0          | 0          |   0.0 |  0.00
Comm    | 0          | 0          | 0          |   0.0 |  0.00
Output  | 0          | 0          | 0          |   0.0 |  0.00
Modify  | 0          | 0          | 0          |   0.0 |  0.00
Other   |            | 4.59e-07   |            |       |100.00

Nlocal:            687 ave         687 max         687 min
Histogram: 1 0 0 0 0 0 0 0 0 0
Nghost:           3239 ave        3239 max        3239 min
Histogram: 1 0 0 0 0 0 0 0 0 0
Neighs:          57787 ave       57787 max       57787 min
Histogram: 1 0 0 0 0 0 0 0 0 0

Total # of neighbors = 57787
Ave neighs/atom = 84.114993
Neighbor list builds = 0
Dangerous builds = 0
    fix escale1 all adapt 1 pair eam/fs:1 scale * * v_l1
    fix escale2 all adapt 1 pair eam/fs:2 scale * * v_l2
    run 0
WARNING: No fixes with time integration, atoms won't move (src/verlet.cpp:60)
Per MPI rank memory allocation (min/avg/max) = 12.34 | 12.34 | 12.34 Mbytes
   Step          Temp          E_pair         E_mol          TotEng         Press     
        51   1.6821874e-21 -2828.4057      0             -2828.4057      3623.3075    
Loop time of 3.75e-07 on 1 procs for 0 steps with 687 atoms

266.7% CPU use with 1 MPI tasks x 1 OpenMP threads

MPI task timing breakdown:
Section |  min time  |  avg time  |  max time  |%varavg| %total
---------------------------------------------------------------
Pair    | 0          | 0          | 0          |   0.0 |  0.00
Neigh   | 0          | 0          | 0          |   0.0 |  0.00
Comm    | 0          | 0          | 0          |   0.0 |  0.00
Output  | 0          | 0          | 0          |   0.0 |  0.00
Modify  | 0          | 0          | 0          |   0.0 |  0.00
Other   |            | 3.75e-07   |            |       |100.00

Nlocal:            687 ave         687 max         687 min
Histogram: 1 0 0 0 0 0 0 0 0 0
Nghost:           3239 ave        3239 max        3239 min
Histogram: 1 0 0 0 0 0 0 0 0 0
Neighs:          57787 ave       57787 max       57787 min
Histogram: 1 0 0 0 0 0 0 0 0 0

Total # of neighbors = 57787
Ave neighs/atom = 84.114993
Neighbor list builds = 0
Dangerous builds = 0
    compute V_1 all pair eam/fs 1
    compute V_2 all pair eam/fs 2
    variable V_1 equal (c_V_1/(0.000001+v_l1))
    variable V_2 equal (c_V_2/(0.000001+v_l2))
    variable dV equal v_V_2-v_V_1
            change_box all x scale 1.0 y scale 1.0 z scale 1.0
Changing box ...
  orthogonal box = (0 0 0) to (19.987184 19.987184 19.987184)
  orthogonal box = (0 0 0) to (19.987184 19.987184 19.987184)
  orthogonal box = (0 0 0) to (19.987184 19.987184 19.987184)
            run 0
WARNING: No fixes with time integration, atoms won't move (src/verlet.cpp:60)
Per MPI rank memory allocation (min/avg/max) = 12.34 | 12.34 | 12.34 Mbytes
   Step          Temp          E_pair         E_mol          TotEng         Press     
        51   1.6821874e-21 -2828.4057      0             -2828.4057      3623.3075    
Loop time of 4.59e-07 on 1 procs for 0 steps with 687 atoms

0.0% CPU use with 1 MPI tasks x 1 OpenMP threads

MPI task timing breakdown:
Section |  min time  |  avg time  |  max time  |%varavg| %total
---------------------------------------------------------------
Pair    | 0          | 0          | 0          |   0.0 |  0.00
Neigh   | 0          | 0          | 0          |   0.0 |  0.00
Comm    | 0          | 0          | 0          |   0.0 |  0.00
Output  | 0          | 0          | 0          |   0.0 |  0.00
Modify  | 0          | 0          | 0          |   0.0 |  0.00
Other   |            | 4.59e-07   |            |       |100.00

Nlocal:            687 ave         687 max         687 min
Histogram: 1 0 0 0 0 0 0 0 0 0
Nghost:           3239 ave        3239 max        3239 min
Histogram: 1 0 0 0 0 0 0 0 0 0
Neighs:          57787 ave       57787 max       57787 min
Histogram: 1 0 0 0 0 0 0 0 0 0

Total # of neighbors = 57787
Ave neighs/atom = 84.114993
Neighbor list builds = 0
Dangerous builds = 0
run 0
WARNING: No fixes with time integration, atoms won't move (src/verlet.cpp:60)
Per MPI rank memory allocation (min/avg/max) = 12.34 | 12.34 | 12.34 Mbytes
   Step          Temp          E_pair         E_mol          TotEng         Press     
        51   1.6821874e-21 -2828.4057      0             -2828.4057      3623.3075    
Loop time of 4.16e-07 on 1 procs for 0 steps with 687 atoms

0.0% CPU use with 1 MPI tasks x 1 OpenMP threads

MPI task timing breakdown:
Section |  min time  |  avg time  |  max time  |%varavg| %total
---------------------------------------------------------------
Pair    | 0          | 0          | 0          |   0.0 |  0.00
Neigh   | 0          | 0          | 0          |   0.0 |  0.00
Comm    | 0          | 0          | 0          |   0.0 |  0.00
Output  | 0          | 0          | 0          |   0.0 |  0.00
Modify  | 0          | 0          | 0          |   0.0 |  0.00
Other   |            | 4.16e-07   |            |       |100.00

Nlocal:            687 ave         687 max         687 min
Histogram: 1 0 0 0 0 0 0 0 0 0
Nghost:           3239 ave        3239 max        3239 min
Histogram: 1 0 0 0 0 0 0 0 0 0
Neighs:          57787 ave       57787 max       57787 min
Histogram: 1 0 0 0 0 0 0 0 0 0

Total # of neighbors = 57787
Ave neighs/atom = 84.114993
Neighbor list builds = 0
Dangerous builds = 0
fix pafi all pafi __pafipath 0.0 0.05 4962 overdamped 0 com 1
fix pafi compute name,style: __pafipath,property/atom
run 0
Per MPI rank memory allocation (min/avg/max) = 12.72 | 12.72 | 12.72 Mbytes
   Step          Temp          E_pair         E_mol          TotEng         Press     
        51   1.6821874e-21 -2828.4057      0             -2828.4057      3623.3075    
Loop time of 3.75e-07 on 1 procs for 0 steps with 687 atoms

0.0% CPU use with 1 MPI tasks x 1 OpenMP threads

MPI task timing breakdown:
Section |  min time  |  avg time  |  max time  |%varavg| %total
---------------------------------------------------------------
Pair    | 0          | 0          | 0          |   0.0 |  0.00
Neigh   | 0          | 0          | 0          |   0.0 |  0.00
Comm    | 0          | 0          | 0          |   0.0 |  0.00
Output  | 0          | 0          | 0          |   0.0 |  0.00
Modify  | 0          | 0          | 0          |   0.0 |  0.00
Other   |            | 3.75e-07   |            |       |100.00

Nlocal:            687 ave         687 max         687 min
Histogram: 1 0 0 0 0 0 0 0 0 0
Nghost:           3239 ave        3239 max        3239 min
Histogram: 1 0 0 0 0 0 0 0 0 0
Neighs:          57787 ave       57787 max       57787 min
Histogram: 1 0 0 0 0 0 0 0 0 0

Total # of neighbors = 57787
Ave neighs/atom = 84.114993
Neighbor list builds = 0
Dangerous builds = 0
            reset_timestep 0
            fix __ae all ave/time 1 10 10 c_thermo_temp
            run 10
Per MPI rank memory allocation (min/avg/max) = 12.72 | 12.72 | 12.72 Mbytes
   Step          Temp          E_pair         E_mol          TotEng         Press     
         0   1.6821874e-21 -2828.4057      0             -2828.4057      3623.3075    
        10   0.0069778559  -2828.4064      0             -2828.4058      3627.189     
Loop time of 0.0141651 on 1 procs for 10 steps with 687 atoms

Performance: 60.995 ns/day, 0.393 hours/ns, 705.959 timesteps/s, 484.994 katom-step/s
99.4% CPU use with 1 MPI tasks x 1 OpenMP threads

MPI task timing breakdown:
Section |  min time  |  avg time  |  max time  |%varavg| %total
---------------------------------------------------------------
Pair    | 0.013583   | 0.013583   | 0.013583   |   0.0 | 95.89
Neigh   | 0          | 0          | 0          |   0.0 |  0.00
Comm    | 7.5543e-05 | 7.5543e-05 | 7.5543e-05 |   0.0 |  0.53
Output  | 4.708e-06  | 4.708e-06  | 4.708e-06  |   0.0 |  0.03
Modify  | 0.00049071 | 0.00049071 | 0.00049071 |   0.0 |  3.46
Other   |            | 1.138e-05  |            |       |  0.08

Nlocal:            687 ave         687 max         687 min
Histogram: 1 0 0 0 0 0 0 0 0 0
Nghost:           3239 ave        3239 max        3239 min
Histogram: 1 0 0 0 0 0 0 0 0 0
Neighs:          57787 ave       57787 max       57787 min
Histogram: 1 0 0 0 0 0 0 0 0 0

Total # of neighbors = 57787
Ave neighs/atom = 84.114993
Neighbor list builds = 0
Dangerous builds = 0
        
            unfix __ae
            run 0
Per MPI rank memory allocation (min/avg/max) = 12.72 | 12.72 | 12.72 Mbytes
   Step          Temp          E_pair         E_mol          TotEng         Press     
        10   0.0069778559  -2828.4064      0             -2828.4058      3627.189     
Loop time of 5.83e-07 on 1 procs for 0 steps with 687 atoms

171.5% CPU use with 1 MPI tasks x 1 OpenMP threads

MPI task timing breakdown:
Section |  min time  |  avg time  |  max time  |%varavg| %total
---------------------------------------------------------------
Pair    | 0          | 0          | 0          |   0.0 |  0.00
Neigh   | 0          | 0          | 0          |   0.0 |  0.00
Comm    | 0          | 0          | 0          |   0.0 |  0.00
Output  | 0          | 0          | 0          |   0.0 |  0.00
Modify  | 0          | 0          | 0          |   0.0 |  0.00
Other   |            | 5.83e-07   |            |       |100.00

Nlocal:            687 ave         687 max         687 min
Histogram: 1 0 0 0 0 0 0 0 0 0
Nghost:           3239 ave        3239 max        3239 min
Histogram: 1 0 0 0 0 0 0 0 0 0
Neighs:          57787 ave       57787 max       57787 min
Histogram: 1 0 0 0 0 0 0 0 0 0

Total # of neighbors = 57787
Ave neighs/atom = 84.114993
Neighbor list builds = 0
Dangerous builds = 0
            reset_timestep 0
            fix __ae all ave/time 1 50 50 c_thermo_temp
            
            fix avepafi all ave/time 1 50 50 f_pafi[*]
        
            #fix dV all ave/time 1 50 50 v_dV
            run 50
Per MPI rank memory allocation (min/avg/max) = 12.72 | 12.72 | 12.72 Mbytes
   Step          Temp          E_pair         E_mol          TotEng         Press     
         0   0.0069778559  -2828.4064      0             -2828.4058      3627.189     
        50   0.011283208   -2828.4098      0             -2828.4088      3697.9272    
Loop time of 0.0744894 on 1 procs for 50 steps with 687 atoms

Performance: 57.995 ns/day, 0.414 hours/ns, 671.236 timesteps/s, 461.139 katom-step/s
99.8% CPU use with 1 MPI tasks x 1 OpenMP threads

MPI task timing breakdown:
Section |  min time  |  avg time  |  max time  |%varavg| %total
---------------------------------------------------------------
Pair    | 0.071632   | 0.071632   | 0.071632   |   0.0 | 96.16
Neigh   | 0          | 0          | 0          |   0.0 |  0.00
Comm    | 0.00038212 | 0.00038212 | 0.00038212 |   0.0 |  0.51
Output  | 6.667e-06  | 6.667e-06  | 6.667e-06  |   0.0 |  0.01
Modify  | 0.0023985  | 0.0023985  | 0.0023985  |   0.0 |  3.22
Other   |            | 7.046e-05  |            |       |  0.09

Nlocal:            687 ave         687 max         687 min
Histogram: 1 0 0 0 0 0 0 0 0 0
Nghost:           3239 ave        3239 max        3239 min
Histogram: 1 0 0 0 0 0 0 0 0 0
Neighs:          57787 ave       57787 max       57787 min
Histogram: 1 0 0 0 0 0 0 0 0 0

Total # of neighbors = 57787
Ave neighs/atom = 84.114993
Neighbor list builds = 0
Dangerous builds = 0
        
unfix avepafi
            unfix __ae
            run 0
Per MPI rank memory allocation (min/avg/max) = 12.72 | 12.72 | 12.72 Mbytes
   Step          Temp          E_pair         E_mol          TotEng         Press     
        50   0.011283208   -2828.4098      0             -2828.4088      3697.9272    
Loop time of 5e-07 on 1 procs for 0 steps with 687 atoms

200.0% CPU use with 1 MPI tasks x 1 OpenMP threads

MPI task timing breakdown:
Section |  min time  |  avg time  |  max time  |%varavg| %total
---------------------------------------------------------------
Pair    | 0          | 0          | 0          |   0.0 |  0.00
Neigh   | 0          | 0          | 0          |   0.0 |  0.00
Comm    | 0          | 0          | 0          |   0.0 |  0.00
Output  | 0          | 0          | 0          |   0.0 |  0.00
Modify  | 0          | 0          | 0          |   0.0 |  0.00
Other   |            | 5e-07      |            |       |100.00

Nlocal:            687 ave         687 max         687 min
Histogram: 1 0 0 0 0 0 0 0 0 0
Nghost:           3239 ave        3239 max        3239 min
Histogram: 1 0 0 0 0 0 0 0 0 0
Neighs:          57787 ave       57787 max       57787 min
Histogram: 1 0 0 0 0 0 0 0 0 0

Total # of neighbors = 57787
Ave neighs/atom = 84.114993
Neighbor list builds = 0
Dangerous builds = 0
            min_style fire
            minimize 0 0.0001 1000 1000
Switching to 'neigh_modify every 1 delay 0 check yes' setting during minimization
  Parameters for fire:
    dmax  delaystep dtgrow dtshrink alpha0 alphashrink tmax tmin   integrator   halfstepback   abcfire  
     0.1     20      1.1     0.5     0.25     0.99      10  0.02 eulerimplicit      yes          no     
Per MPI rank memory allocation (min/avg/max) = 12.72 | 12.72 | 12.72 Mbytes
   Step          Temp          E_pair         E_mol          TotEng         Press     
        50   0             -2828.4098      0             -2828.4098      3697.7933    
       168   5.640936e-11  -2828.4107      0             -2828.4107      3710.0272    
Loop time of 0.215507 on 1 procs for 118 steps with 687 atoms

99.8% CPU use with 1 MPI tasks x 1 OpenMP threads

Minimization stats:
  Stopping criterion = force tolerance
  Energy initial, next-to-last, final = 
     -2828.40976224119  -2828.41065061908  -2828.41065061911
  Force two-norm initial, final = 0.14069252 9.3902341e-05
  Force max component initial, final = 0.040834758 2.4728929e-05
  Final line search alpha, max atom move = 0 0
  Iterations, force evaluations = 118 124

MPI task timing breakdown:
Section |  min time  |  avg time  |  max time  |%varavg| %total
---------------------------------------------------------------
Pair    | 0.2113     | 0.2113     | 0.2113     |   0.0 | 98.05
Neigh   | 0          | 0          | 0          |   0.0 |  0.00
Comm    | 0.00092813 | 0.00092813 | 0.00092813 |   0.0 |  0.43
Output  | 0          | 0          | 0          |   0.0 |  0.00
Modify  | 0.0021148  | 0.0021148  | 0.0021148  |   0.0 |  0.98
Other   |            | 0.001169   |            |       |  0.54

Nlocal:            687 ave         687 max         687 min
Histogram: 1 0 0 0 0 0 0 0 0 0
Nghost:           3239 ave        3239 max        3239 min
Histogram: 1 0 0 0 0 0 0 0 0 0
Neighs:          57787 ave       57787 max       57787 min
Histogram: 1 0 0 0 0 0 0 0 0 0

Total # of neighbors = 57787
Ave neighs/atom = 84.114993
Neighbor list builds = 0
Dangerous builds = 0
        
unfix pafi
    variable dV delete
    uncompute V_1
    uncompute V_2
    unfix escale1
    unfix escale2
            change_box all x scale 1.0 y scale 1.0 z scale 1.0
Changing box ...
  orthogonal box = (0 0 0) to (19.987184 19.987184 19.987184)
  orthogonal box = (0 0 0) to (19.987184 19.987184 19.987184)
  orthogonal box = (0 0 0) to (19.987184 19.987184 19.987184)
            run 0
WARNING: No fixes with time integration, atoms won't move (src/verlet.cpp:60)
Per MPI rank memory allocation (min/avg/max) = 12.34 | 12.34 | 12.34 Mbytes
   Step          Temp          E_pair         E_mol          TotEng         Press     
       168   5.640936e-11  -2828.4107      0             -2828.4107      3710.0272    
Loop time of 4.17e-07 on 1 procs for 0 steps with 687 atoms

239.8% CPU use with 1 MPI tasks x 1 OpenMP threads

MPI task timing breakdown:
Section |  min time  |  avg time  |  max time  |%varavg| %total
---------------------------------------------------------------
Pair    | 0          | 0          | 0          |   0.0 |  0.00
Neigh   | 0          | 0          | 0          |   0.0 |  0.00
Comm    | 0          | 0          | 0          |   0.0 |  0.00
Output  | 0          | 0          | 0          |   0.0 |  0.00
Modify  | 0          | 0          | 0          |   0.0 |  0.00
Other   |            | 4.17e-07   |            |       |100.00

Nlocal:            687 ave         687 max         687 min
Histogram: 1 0 0 0 0 0 0 0 0 0
Nghost:           3239 ave        3239 max        3239 min
Histogram: 1 0 0 0 0 0 0 0 0 0
Neighs:          57787 ave       57787 max       57787 min
Histogram: 1 0 0 0 0 0 0 0 0 0

Total # of neighbors = 57787
Ave neighs/atom = 84.114993
Neighbor list builds = 0
Dangerous builds = 0
run 0
WARNING: No fixes with time integration, atoms won't move (src/verlet.cpp:60)
Per MPI rank memory allocation (min/avg/max) = 12.34 | 12.34 | 12.34 Mbytes
   Step          Temp          E_pair         E_mol          TotEng         Press     
       168   5.640936e-11  -2828.4057      0             -2828.4057      3623.3075    
Loop time of 3.75e-07 on 1 procs for 0 steps with 687 atoms

266.7% CPU use with 1 MPI tasks x 1 OpenMP threads

MPI task timing breakdown:
Section |  min time  |  avg time  |  max time  |%varavg| %total
---------------------------------------------------------------
Pair    | 0          | 0          | 0          |   0.0 |  0.00
Neigh   | 0          | 0          | 0          |   0.0 |  0.00
Comm    | 0          | 0          | 0          |   0.0 |  0.00
Output  | 0          | 0          | 0          |   0.0 |  0.00
Modify  | 0          | 0          | 0          |   0.0 |  0.00
Other   |            | 3.75e-07   |            |       |100.00

Nlocal:            687 ave         687 max         687 min
Histogram: 1 0 0 0 0 0 0 0 0 0
Nghost:           3239 ave        3239 max        3239 min
Histogram: 1 0 0 0 0 0 0 0 0 0
Neighs:          57787 ave       57787 max       57787 min
Histogram: 1 0 0 0 0 0 0 0 0 0

Total # of neighbors = 57787
Ave neighs/atom = 84.114993
Neighbor list builds = 0
Dangerous builds = 0
            change_box all x scale 1.0 y scale 1.0 z scale 1.0
Changing box ...
  orthogonal box = (0 0 0) to (19.987184 19.987184 19.987184)
  orthogonal box = (0 0 0) to (19.987184 19.987184 19.987184)
  orthogonal box = (0 0 0) to (19.987184 19.987184 19.987184)
            run 0
WARNING: No fixes with time integration, atoms won't move (src/verlet.cpp:60)
Per MPI rank memory allocation (min/avg/max) = 12.34 | 12.34 | 12.34 Mbytes
   Step          Temp          E_pair         E_mol          TotEng         Press     
       168   5.640936e-11  -2828.4057      0             -2828.4057      3623.3075    
Loop time of 4.17e-07 on 1 procs for 0 steps with 687 atoms

239.8% CPU use with 1 MPI tasks x 1 OpenMP threads

MPI task timing breakdown:
Section |  min time  |  avg time  |  max time  |%varavg| %total
---------------------------------------------------------------
Pair    | 0          | 0          | 0          |   0.0 |  0.00
Neigh   | 0          | 0          | 0          |   0.0 |  0.00
Comm    | 0          | 0          | 0          |   0.0 |  0.00
Output  | 0          | 0          | 0          |   0.0 |  0.00
Modify  | 0          | 0          | 0          |   0.0 |  0.00
Other   |            | 4.17e-07   |            |       |100.00

Nlocal:            687 ave         687 max         687 min
Histogram: 1 0 0 0 0 0 0 0 0 0
Nghost:           3239 ave        3239 max        3239 min
Histogram: 1 0 0 0 0 0 0 0 0 0
Neighs:          57787 ave       57787 max       57787 min
Histogram: 1 0 0 0 0 0 0 0 0 0

Total # of neighbors = 57787
Ave neighs/atom = 84.114993
Neighbor list builds = 0
Dangerous builds = 0
run 0
WARNING: No fixes with time integration, atoms won't move (src/verlet.cpp:60)
Per MPI rank memory allocation (min/avg/max) = 12.34 | 12.34 | 12.34 Mbytes
   Step          Temp          E_pair         E_mol          TotEng         Press     
       168   5.640936e-11  -2828.4057      0             -2828.4057      3623.3075    
Loop time of 4.17e-07 on 1 procs for 0 steps with 687 atoms

0.0% CPU use with 1 MPI tasks x 1 OpenMP threads

MPI task timing breakdown:
Section |  min time  |  avg time  |  max time  |%varavg| %total
---------------------------------------------------------------
Pair    | 0          | 0          | 0          |   0.0 |  0.00
Neigh   | 0          | 0          | 0          |   0.0 |  0.00
Comm    | 0          | 0          | 0          |   0.0 |  0.00
Output  | 0          | 0          | 0          |   0.0 |  0.00
Modify  | 0          | 0          | 0          |   0.0 |  0.00
Other   |            | 4.17e-07   |            |       |100.00

Nlocal:            687 ave         687 max         687 min
Histogram: 1 0 0 0 0 0 0 0 0 0
Nghost:           3239 ave        3239 max        3239 min
Histogram: 1 0 0 0 0 0 0 0 0 0
Neighs:          57787 ave       57787 max       57787 min
Histogram: 1 0 0 0 0 0 0 0 0 0

Total # of neighbors = 57787
Ave neighs/atom = 84.114993
Neighbor list builds = 0
Dangerous builds = 0
    variable l1 equal 1.0-0.5
    variable l2 equal 0.0+0.5
    run 0
WARNING: No fixes with time integration, atoms won't move (src/verlet.cpp:60)
Per MPI rank memory allocation (min/avg/max) = 12.34 | 12.34 | 12.34 Mbytes
   Step          Temp          E_pair         E_mol          TotEng         Press     
       168   5.640936e-11  -2828.4057      0             -2828.4057      3623.3075    
Loop time of 3.75e-07 on 1 procs for 0 steps with 687 atoms

266.7% CPU use with 1 MPI tasks x 1 OpenMP threads

MPI task timing breakdown:
Section |  min time  |  avg time  |  max time  |%varavg| %total
---------------------------------------------------------------
Pair    | 0          | 0          | 0          |   0.0 |  0.00
Neigh   | 0          | 0          | 0          |   0.0 |  0.00
Comm    | 0          | 0          | 0          |   0.0 |  0.00
Output  | 0          | 0          | 0          |   0.0 |  0.00
Modify  | 0          | 0          | 0          |   0.0 |  0.00
Other   |            | 3.75e-07   |            |       |100.00

Nlocal:            687 ave         687 max         687 min
Histogram: 1 0 0 0 0 0 0 0 0 0
Nghost:           3239 ave        3239 max        3239 min
Histogram: 1 0 0 0 0 0 0 0 0 0
Neighs:          57787 ave       57787 max       57787 min
Histogram: 1 0 0 0 0 0 0 0 0 0

Total # of neighbors = 57787
Ave neighs/atom = 84.114993
Neighbor list builds = 0
Dangerous builds = 0
    fix escale1 all adapt 1 pair eam/fs:1 scale * * v_l1
    fix escale2 all adapt 1 pair eam/fs:2 scale * * v_l2
    run 0
WARNING: No fixes with time integration, atoms won't move (src/verlet.cpp:60)
Per MPI rank memory allocation (min/avg/max) = 12.34 | 12.34 | 12.34 Mbytes
   Step          Temp          E_pair         E_mol          TotEng         Press     
       168   5.640936e-11  -2828.4329      0             -2828.4329      3418.2083    
Loop time of 4.17e-07 on 1 procs for 0 steps with 687 atoms

239.8% CPU use with 1 MPI tasks x 1 OpenMP threads

MPI task timing breakdown:
Section |  min time  |  avg time  |  max time  |%varavg| %total
---------------------------------------------------------------
Pair    | 0          | 0          | 0          |   0.0 |  0.00
Neigh   | 0          | 0          | 0          |   0.0 |  0.00
Comm    | 0          | 0          | 0          |   0.0 |  0.00
Output  | 0          | 0          | 0          |   0.0 |  0.00
Modify  | 0          | 0          | 0          |   0.0 |  0.00
Other   |            | 4.17e-07   |            |       |100.00

Nlocal:            687 ave         687 max         687 min
Histogram: 1 0 0 0 0 0 0 0 0 0
Nghost:           3239 ave        3239 max        3239 min
Histogram: 1 0 0 0 0 0 0 0 0 0
Neighs:          57787 ave       57787 max       57787 min
Histogram: 1 0 0 0 0 0 0 0 0 0

Total # of neighbors = 57787
Ave neighs/atom = 84.114993
Neighbor list builds = 0
Dangerous builds = 0
    compute V_1 all pair eam/fs 1
    compute V_2 all pair eam/fs 2
    variable V_1 equal (c_V_1/(0.000001+v_l1))
    variable V_2 equal (c_V_2/(0.000001+v_l2))
    variable dV equal v_V_2-v_V_1
            change_box all x scale 1.0 y scale 1.0 z scale 1.0
Changing box ...
  orthogonal box = (0 0 0) to (19.987184 19.987184 19.987184)
  orthogonal box = (0 0 0) to (19.987184 19.987184 19.987184)
  orthogonal box = (0 0 0) to (19.987184 19.987184 19.987184)
            run 0
WARNING: No fixes with time integration, atoms won't move (src/verlet.cpp:60)
Per MPI rank memory allocation (min/avg/max) = 12.34 | 12.34 | 12.34 Mbytes
   Step          Temp          E_pair         E_mol          TotEng         Press     
       168   5.640936e-11  -2828.4329      0             -2828.4329      3418.2083    
Loop time of 4.16e-07 on 1 procs for 0 steps with 687 atoms

961.5% CPU use with 1 MPI tasks x 1 OpenMP threads

MPI task timing breakdown:
Section |  min time  |  avg time  |  max time  |%varavg| %total
---------------------------------------------------------------
Pair    | 0          | 0          | 0          |   0.0 |  0.00
Neigh   | 0          | 0          | 0          |   0.0 |  0.00
Comm    | 0          | 0          | 0          |   0.0 |  0.00
Output  | 0          | 0          | 0          |   0.0 |  0.00
Modify  | 0          | 0          | 0          |   0.0 |  0.00
Other   |            | 4.16e-07   |            |       |100.00

Nlocal:            687 ave         687 max         687 min
Histogram: 1 0 0 0 0 0 0 0 0 0
Nghost:           3239 ave        3239 max        3239 min
Histogram: 1 0 0 0 0 0 0 0 0 0
Neighs:          57787 ave       57787 max       57787 min
Histogram: 1 0 0 0 0 0 0 0 0 0

Total # of neighbors = 57787
Ave neighs/atom = 84.114993
Neighbor list builds = 0
Dangerous builds = 0
run 0
WARNING: No fixes with time integration, atoms won't move (src/verlet.cpp:60)
Per MPI rank memory allocation (min/avg/max) = 12.34 | 12.34 | 12.34 Mbytes
   Step          Temp          E_pair         E_mol          TotEng         Press     
       168   5.640936e-11  -2828.4329      0             -2828.4329      3418.2083    
Loop time of 4.17e-07 on 1 procs for 0 steps with 687 atoms

239.8% CPU use with 1 MPI tasks x 1 OpenMP threads

MPI task timing breakdown:
Section |  min time  |  avg time  |  max time  |%varavg| %total
---------------------------------------------------------------
Pair    | 0          | 0          | 0          |   0.0 |  0.00
Neigh   | 0          | 0          | 0          |   0.0 |  0.00
Comm    | 0          | 0          | 0          |   0.0 |  0.00
Output  | 0          | 0          | 0          |   0.0 |  0.00
Modify  | 0          | 0          | 0          |   0.0 |  0.00
Other   |            | 4.17e-07   |            |       |100.00

Nlocal:            687 ave         687 max         687 min
Histogram: 1 0 0 0 0 0 0 0 0 0
Nghost:           3239 ave        3239 max        3239 min
Histogram: 1 0 0 0 0 0 0 0 0 0
Neighs:          57787 ave       57787 max       57787 min
Histogram: 1 0 0 0 0 0 0 0 0 0

Total # of neighbors = 57787
Ave neighs/atom = 84.114993
Neighbor list builds = 0
Dangerous builds = 0
fix pafi all pafi __pafipath 0.0 0.05 4962 overdamped 0 com 1
fix pafi compute name,style: __pafipath,property/atom
run 0
Per MPI rank memory allocation (min/avg/max) = 12.72 | 12.72 | 12.72 Mbytes
   Step          Temp          E_pair         E_mol          TotEng         Press     
       168   5.640936e-11  -2828.4329      0             -2828.4329      3418.2083    
Loop time of 4.16e-07 on 1 procs for 0 steps with 687 atoms

240.4% CPU use with 1 MPI tasks x 1 OpenMP threads

MPI task timing breakdown:
Section |  min time  |  avg time  |  max time  |%varavg| %total
---------------------------------------------------------------
Pair    | 0          | 0          | 0          |   0.0 |  0.00
Neigh   | 0          | 0          | 0          |   0.0 |  0.00
Comm    | 0          | 0          | 0          |   0.0 |  0.00
Output  | 0          | 0          | 0          |   0.0 |  0.00
Modify  | 0          | 0          | 0          |   0.0 |  0.00
Other   |            | 4.16e-07   |            |       |100.00

Nlocal:            687 ave         687 max         687 min
Histogram: 1 0 0 0 0 0 0 0 0 0
Nghost:           3239 ave        3239 max        3239 min
Histogram: 1 0 0 0 0 0 0 0 0 0
Neighs:          57787 ave       57787 max       57787 min
Histogram: 1 0 0 0 0 0 0 0 0 0

Total # of neighbors = 57787
Ave neighs/atom = 84.114993
Neighbor list builds = 0
Dangerous builds = 0
            reset_timestep 0
            fix __ae all ave/time 1 10 10 c_thermo_temp
            run 10
Per MPI rank memory allocation (min/avg/max) = 12.72 | 12.72 | 12.72 Mbytes
   Step          Temp          E_pair         E_mol          TotEng         Press     
         0   5.640936e-11  -2828.4329      0             -2828.4329      3418.2083    
        10   0.028381538   -2828.4357      0             -2828.4332      3423.9557    
Loop time of 0.0139588 on 1 procs for 10 steps with 687 atoms

Performance: 61.896 ns/day, 0.388 hours/ns, 716.392 timesteps/s, 492.161 katom-step/s
99.9% CPU use with 1 MPI tasks x 1 OpenMP threads

MPI task timing breakdown:
Section |  min time  |  avg time  |  max time  |%varavg| %total
---------------------------------------------------------------
Pair    | 0.013407   | 0.013407   | 0.013407   |   0.0 | 96.04
Neigh   | 0          | 0          | 0          |   0.0 |  0.00
Comm    | 7.7498e-05 | 7.7498e-05 | 7.7498e-05 |   0.0 |  0.56
Output  | 3.667e-06  | 3.667e-06  | 3.667e-06  |   0.0 |  0.03
Modify  | 0.00045996 | 0.00045996 | 0.00045996 |   0.0 |  3.30
Other   |            | 1.1e-05    |            |       |  0.08

Nlocal:            687 ave         687 max         687 min
Histogram: 1 0 0 0 0 0 0 0 0 0
Nghost:           3239 ave        3239 max        3239 min
Histogram: 1 0 0 0 0 0 0 0 0 0
Neighs:          57787 ave       57787 max       57787 min
Histogram: 1 0 0 0 0 0 0 0 0 0

Total # of neighbors = 57787
Ave neighs/atom = 84.114993
Neighbor list builds = 0
Dangerous builds = 0
        
            unfix __ae
            run 0
Per MPI rank memory allocation (min/avg/max) = 12.72 | 12.72 | 12.72 Mbytes
   Step          Temp          E_pair         E_mol          TotEng         Press     
        10   0.028381538   -2828.4357      0             -2828.4332      3423.9557    
Loop time of 3.75e-07 on 1 procs for 0 steps with 687 atoms

266.7% CPU use with 1 MPI tasks x 1 OpenMP threads

MPI task timing breakdown:
Section |  min time  |  avg time  |  max time  |%varavg| %total
---------------------------------------------------------------
Pair    | 0          | 0          | 0          |   0.0 |  0.00
Neigh   | 0          | 0          | 0          |   0.0 |  0.00
Comm    | 0          | 0          | 0          |   0.0 |  0.00
Output  | 0          | 0          | 0          |   0.0 |  0.00
Modify  | 0          | 0          | 0          |   0.0 |  0.00
Other   |            | 3.75e-07   |            |       |100.00

Nlocal:            687 ave         687 max         687 min
Histogram: 1 0 0 0 0 0 0 0 0 0
Nghost:           3239 ave        3239 max        3239 min
Histogram: 1 0 0 0 0 0 0 0 0 0
Neighs:          57787 ave       57787 max       57787 min
Histogram: 1 0 0 0 0 0 0 0 0 0

Total # of neighbors = 57787
Ave neighs/atom = 84.114993
Neighbor list builds = 0
Dangerous builds = 0
            reset_timestep 0
            fix __ae all ave/time 1 50 50 c_thermo_temp
            
            fix avepafi all ave/time 1 50 50 f_pafi[*]
        
            #fix dV all ave/time 1 50 50 v_dV
            run 50
Per MPI rank memory allocation (min/avg/max) = 12.72 | 12.72 | 12.72 Mbytes
   Step          Temp          E_pair         E_mol          TotEng         Press     
         0   0.028381538   -2828.4357      0             -2828.4332      3423.9557    
        50   0.046018665   -2828.4495      0             -2828.4454      3552.098     
Loop time of 0.0734282 on 1 procs for 50 steps with 687 atoms

Performance: 58.833 ns/day, 0.408 hours/ns, 680.938 timesteps/s, 467.804 katom-step/s
99.8% CPU use with 1 MPI tasks x 1 OpenMP threads

MPI task timing breakdown:
Section |  min time  |  avg time  |  max time  |%varavg| %total
---------------------------------------------------------------
Pair    | 0.070681   | 0.070681   | 0.070681   |   0.0 | 96.26
Neigh   | 0          | 0          | 0          |   0.0 |  0.00
Comm    | 0.00037391 | 0.00037391 | 0.00037391 |   0.0 |  0.51
Output  | 6.25e-06   | 6.25e-06   | 6.25e-06   |   0.0 |  0.01
Modify  | 0.0023052  | 0.0023052  | 0.0023052  |   0.0 |  3.14
Other   |            | 6.2e-05    |            |       |  0.08

Nlocal:            687 ave         687 max         687 min
Histogram: 1 0 0 0 0 0 0 0 0 0
Nghost:           3239 ave        3239 max        3239 min
Histogram: 1 0 0 0 0 0 0 0 0 0
Neighs:          57787 ave       57787 max       57787 min
Histogram: 1 0 0 0 0 0 0 0 0 0

Total # of neighbors = 57787
Ave neighs/atom = 84.114993
Neighbor list builds = 0
Dangerous builds = 0
        
unfix avepafi
            unfix __ae
            run 0
Per MPI rank memory allocation (min/avg/max) = 12.72 | 12.72 | 12.72 Mbytes
   Step          Temp          E_pair         E_mol          TotEng         Press     
        50   0.046018665   -2828.4495      0             -2828.4454      3552.098     
Loop time of 4.17e-07 on 1 procs for 0 steps with 687 atoms

719.4% CPU use with 1 MPI tasks x 1 OpenMP threads

MPI task timing breakdown:
Section |  min time  |  avg time  |  max time  |%varavg| %total
---------------------------------------------------------------
Pair    | 0          | 0          | 0          |   0.0 |  0.00
Neigh   | 0          | 0          | 0          |   0.0 |  0.00
Comm    | 0          | 0          | 0          |   0.0 |  0.00
Output  | 0          | 0          | 0          |   0.0 |  0.00
Modify  | 0          | 0          | 0          |   0.0 |  0.00
Other   |            | 4.17e-07   |            |       |100.00

Nlocal:            687 ave         687 max         687 min
Histogram: 1 0 0 0 0 0 0 0 0 0
Nghost:           3239 ave        3239 max        3239 min
Histogram: 1 0 0 0 0 0 0 0 0 0
Neighs:          57787 ave       57787 max       57787 min
Histogram: 1 0 0 0 0 0 0 0 0 0

Total # of neighbors = 57787
Ave neighs/atom = 84.114993
Neighbor list builds = 0
Dangerous builds = 0
            min_style fire
            minimize 0 0.0001 1000 1000
Switching to 'neigh_modify every 1 delay 0 check yes' setting during minimization
  Parameters for fire:
    dmax  delaystep dtgrow dtshrink alpha0 alphashrink tmax tmin   integrator   halfstepback   abcfire  
     0.1     20      1.1     0.5     0.25     0.99      10  0.02 eulerimplicit      yes          no     
Per MPI rank memory allocation (min/avg/max) = 12.72 | 12.72 | 12.72 Mbytes
   Step          Temp          E_pair         E_mol          TotEng         Press     
        50   0             -2828.4495      0             -2828.4495      3551.5522    
       162   7.7596394e-07 -2828.4532      0             -2828.4532      3568.8272    
Loop time of 0.202113 on 1 procs for 112 steps with 687 atoms

99.8% CPU use with 1 MPI tasks x 1 OpenMP threads

Minimization stats:
  Stopping criterion = force tolerance
  Energy initial, next-to-last, final = 
      -2828.4495100211  -2828.45318432659   -2828.4531843305
  Force two-norm initial, final = 0.28134126 7.9252185e-05
  Force max component initial, final = 0.078186375 1.5061177e-05
  Final line search alpha, max atom move = 0 0
  Iterations, force evaluations = 112 116

MPI task timing breakdown:
Section |  min time  |  avg time  |  max time  |%varavg| %total
---------------------------------------------------------------
Pair    | 0.19822    | 0.19822    | 0.19822    |   0.0 | 98.07
Neigh   | 0          | 0          | 0          |   0.0 |  0.00
Comm    | 0.00087455 | 0.00087455 | 0.00087455 |   0.0 |  0.43
Output  | 0          | 0          | 0          |   0.0 |  0.00
Modify  | 0.0019123  | 0.0019123  | 0.0019123  |   0.0 |  0.95
Other   |            | 0.001106   |            |       |  0.55

Nlocal:            687 ave         687 max         687 min
Histogram: 1 0 0 0 0 0 0 0 0 0
Nghost:           3239 ave        3239 max        3239 min
Histogram: 1 0 0 0 0 0 0 0 0 0
Neighs:          57787 ave       57787 max       57787 min
Histogram: 1 0 0 0 0 0 0 0 0 0

Total # of neighbors = 57787
Ave neighs/atom = 84.114993
Neighbor list builds = 0
Dangerous builds = 0
        
unfix pafi
    variable dV delete
    uncompute V_1
    uncompute V_2
    unfix escale1
    unfix escale2
            change_box all x scale 1.0 y scale 1.0 z scale 1.0
Changing box ...
  orthogonal box = (0 0 0) to (19.987184 19.987184 19.987184)
  orthogonal box = (0 0 0) to (19.987184 19.987184 19.987184)
  orthogonal box = (0 0 0) to (19.987184 19.987184 19.987184)
            run 0
WARNING: No fixes with time integration, atoms won't move (src/verlet.cpp:60)
Per MPI rank memory allocation (min/avg/max) = 12.34 | 12.34 | 12.34 Mbytes
   Step          Temp          E_pair         E_mol          TotEng         Press     
       162   7.7596394e-07 -2828.4532      0             -2828.4532      3568.8272    
Loop time of 4.17e-07 on 1 procs for 0 steps with 687 atoms

239.8% CPU use with 1 MPI tasks x 1 OpenMP threads

MPI task timing breakdown:
Section |  min time  |  avg time  |  max time  |%varavg| %total
---------------------------------------------------------------
Pair    | 0          | 0          | 0          |   0.0 |  0.00
Neigh   | 0          | 0          | 0          |   0.0 |  0.00
Comm    | 0          | 0          | 0          |   0.0 |  0.00
Output  | 0          | 0          | 0          |   0.0 |  0.00
Modify  | 0          | 0          | 0          |   0.0 |  0.00
Other   |            | 4.17e-07   |            |       |100.00

Nlocal:            687 ave         687 max         687 min
Histogram: 1 0 0 0 0 0 0 0 0 0
Nghost:           3239 ave        3239 max        3239 min
Histogram: 1 0 0 0 0 0 0 0 0 0
Neighs:          57787 ave       57787 max       57787 min
Histogram: 1 0 0 0 0 0 0 0 0 0

Total # of neighbors = 57787
Ave neighs/atom = 84.114993
Neighbor list builds = 0
Dangerous builds = 0
run 0
WARNING: No fixes with time integration, atoms won't move (src/verlet.cpp:60)
Per MPI rank memory allocation (min/avg/max) = 12.34 | 12.34 | 12.34 Mbytes
   Step          Temp          E_pair         E_mol          TotEng         Press     
       162   7.7596394e-07 -2828.4329      0             -2828.4329      3418.2083    
Loop time of 4.17e-07 on 1 procs for 0 steps with 687 atoms

239.8% CPU use with 1 MPI tasks x 1 OpenMP threads

MPI task timing breakdown:
Section |  min time  |  avg time  |  max time  |%varavg| %total
---------------------------------------------------------------
Pair    | 0          | 0          | 0          |   0.0 |  0.00
Neigh   | 0          | 0          | 0          |   0.0 |  0.00
Comm    | 0          | 0          | 0          |   0.0 |  0.00
Output  | 0          | 0          | 0          |   0.0 |  0.00
Modify  | 0          | 0          | 0          |   0.0 |  0.00
Other   |            | 4.17e-07   |            |       |100.00

Nlocal:            687 ave         687 max         687 min
Histogram: 1 0 0 0 0 0 0 0 0 0
Nghost:           3239 ave        3239 max        3239 min
Histogram: 1 0 0 0 0 0 0 0 0 0
Neighs:          57787 ave       57787 max       57787 min
Histogram: 1 0 0 0 0 0 0 0 0 0

Total # of neighbors = 57787
Ave neighs/atom = 84.114993
Neighbor list builds = 0
Dangerous builds = 0
            change_box all x scale 1.0 y scale 1.0 z scale 1.0
Changing box ...
  orthogonal box = (0 0 0) to (19.987184 19.987184 19.987184)
  orthogonal box = (0 0 0) to (19.987184 19.987184 19.987184)
  orthogonal box = (0 0 0) to (19.987184 19.987184 19.987184)
            run 0
WARNING: No fixes with time integration, atoms won't move (src/verlet.cpp:60)
Per MPI rank memory allocation (min/avg/max) = 12.34 | 12.34 | 12.34 Mbytes
   Step          Temp          E_pair         E_mol          TotEng         Press     
       162   7.7596394e-07 -2828.4329      0             -2828.4329      3418.2083    
Loop time of 3.75e-07 on 1 procs for 0 steps with 687 atoms

266.7% CPU use with 1 MPI tasks x 1 OpenMP threads

MPI task timing breakdown:
Section |  min time  |  avg time  |  max time  |%varavg| %total
---------------------------------------------------------------
Pair    | 0          | 0          | 0          |   0.0 |  0.00
Neigh   | 0          | 0          | 0          |   0.0 |  0.00
Comm    | 0          | 0          | 0          |   0.0 |  0.00
Output  | 0          | 0          | 0          |   0.0 |  0.00
Modify  | 0          | 0          | 0          |   0.0 |  0.00
Other   |            | 3.75e-07   |            |       |100.00

Nlocal:            687 ave         687 max         687 min
Histogram: 1 0 0 0 0 0 0 0 0 0
Nghost:           3239 ave        3239 max        3239 min
Histogram: 1 0 0 0 0 0 0 0 0 0
Neighs:          57787 ave       57787 max       57787 min
Histogram: 1 0 0 0 0 0 0 0 0 0

Total # of neighbors = 57787
Ave neighs/atom = 84.114993
Neighbor list builds = 0
Dangerous builds = 0
run 0
WARNING: No fixes with time integration, atoms won't move (src/verlet.cpp:60)
Per MPI rank memory allocation (min/avg/max) = 12.34 | 12.34 | 12.34 Mbytes
   Step          Temp          E_pair         E_mol          TotEng         Press     
       162   7.7596394e-07 -2828.4329      0             -2828.4329      3418.2083    
Loop time of 4.58e-07 on 1 procs for 0 steps with 687 atoms

873.4% CPU use with 1 MPI tasks x 1 OpenMP threads

MPI task timing breakdown:
Section |  min time  |  avg time  |  max time  |%varavg| %total
---------------------------------------------------------------
Pair    | 0          | 0          | 0          |   0.0 |  0.00
Neigh   | 0          | 0          | 0          |   0.0 |  0.00
Comm    | 0          | 0          | 0          |   0.0 |  0.00
Output  | 0          | 0          | 0          |   0.0 |  0.00
Modify  | 0          | 0          | 0          |   0.0 |  0.00
Other   |            | 4.58e-07   |            |       |100.00

Nlocal:            687 ave         687 max         687 min
Histogram: 1 0 0 0 0 0 0 0 0 0
Nghost:           3239 ave        3239 max        3239 min
Histogram: 1 0 0 0 0 0 0 0 0 0
Neighs:          57787 ave       57787 max       57787 min
Histogram: 1 0 0 0 0 0 0 0 0 0

Total # of neighbors = 57787
Ave neighs/atom = 84.114993
Neighbor list builds = 0
Dangerous builds = 0
    variable l1 equal 1.0-0.75
    variable l2 equal 0.0+0.75
    run 0
WARNING: No fixes with time integration, atoms won't move (src/verlet.cpp:60)
Per MPI rank memory allocation (min/avg/max) = 12.34 | 12.34 | 12.34 Mbytes
   Step          Temp          E_pair         E_mol          TotEng         Press     
       162   7.7596394e-07 -2828.4329      0             -2828.4329      3418.2083    
Loop time of 5e-07 on 1 procs for 0 steps with 687 atoms

200.0% CPU use with 1 MPI tasks x 1 OpenMP threads

MPI task timing breakdown:
Section |  min time  |  avg time  |  max time  |%varavg| %total
---------------------------------------------------------------
Pair    | 0          | 0          | 0          |   0.0 |  0.00
Neigh   | 0          | 0          | 0          |   0.0 |  0.00
Comm    | 0          | 0          | 0          |   0.0 |  0.00
Output  | 0          | 0          | 0          |   0.0 |  0.00
Modify  | 0          | 0          | 0          |   0.0 |  0.00
Other   |            | 5e-07      |            |       |100.00

Nlocal:            687 ave         687 max         687 min
Histogram: 1 0 0 0 0 0 0 0 0 0
Nghost:           3239 ave        3239 max        3239 min
Histogram: 1 0 0 0 0 0 0 0 0 0
Neighs:          57787 ave       57787 max       57787 min
Histogram: 1 0 0 0 0 0 0 0 0 0

Total # of neighbors = 57787
Ave neighs/atom = 84.114993
Neighbor list builds = 0
Dangerous builds = 0
    fix escale1 all adapt 1 pair eam/fs:1 scale * * v_l1
    fix escale2 all adapt 1 pair eam/fs:2 scale * * v_l2
    run 0
WARNING: No fixes with time integration, atoms won't move (src/verlet.cpp:60)
Per MPI rank memory allocation (min/avg/max) = 12.34 | 12.34 | 12.34 Mbytes
   Step          Temp          E_pair         E_mol          TotEng         Press     
       162   7.7596394e-07 -2828.46        0             -2828.46        3213.109     
Loop time of 3.75e-07 on 1 procs for 0 steps with 687 atoms

800.0% CPU use with 1 MPI tasks x 1 OpenMP threads

MPI task timing breakdown:
Section |  min time  |  avg time  |  max time  |%varavg| %total
---------------------------------------------------------------
Pair    | 0          | 0          | 0          |   0.0 |  0.00
Neigh   | 0          | 0          | 0          |   0.0 |  0.00
Comm    | 0          | 0          | 0          |   0.0 |  0.00
Output  | 0          | 0          | 0          |   0.0 |  0.00
Modify  | 0          | 0          | 0          |   0.0 |  0.00
Other   |            | 3.75e-07   |            |       |100.00

Nlocal:            687 ave         687 max         687 min
[...]
Output  | 0          | 0          | 0          |   0.0 |  0.00
Modify  | 0          | 0          | 0          |   0.0 |  0.00
Other   |            | 3.75e-07   |            |       |100.00

Nlocal:            687 ave         687 max         687 min
Histogram: 1 0 0 0 0 0 0 0 0 0
Nghost:           3239 ave        3239 max        3239 min
Histogram: 1 0 0 0 0 0 0 0 0 0
Neighs:          57787 ave       57787 max       57787 min
Histogram: 1 0 0 0 0 0 0 0 0 0

Total # of neighbors = 57787
Ave neighs/atom = 84.114993
Neighbor list builds = 0
Dangerous builds = 0
run 0
Per MPI rank memory allocation (min/avg/max) = 12.34 | 12.34 | 12.34 Mbytes
   Step          Temp          E_pair         E_mol          TotEng         Press     
       161   1.0854865e-06 -2828.46        0             -2828.46        3213.109     
Loop time of 4.17e-07 on 1 procs for 0 steps with 687 atoms

239.8% CPU use with 1 MPI tasks x 1 OpenMP threads

MPI task timing breakdown:
Section |  min time  |  avg time  |  max time  |%varavg| %total
---------------------------------------------------------------
Pair    | 0          | 0          | 0          |   0.0 |  0.00
Neigh   | 0          | 0          | 0          |   0.0 |  0.00
Comm    | 0          | 0          | 0          |   0.0 |  0.00
Output  | 0          | 0          | 0          |   0.0 |  0.00
Modify  | 0          | 0          | 0          |   0.0 |  0.00
Other   |            | 4.17e-07   |            |       |100.00

Nlocal:            687 ave         687 max         687 min
Histogram: 1 0 0 0 0 0 0 0 0 0
Nghost:           3239 ave        3239 max        3239 min
Histogram: 1 0 0 0 0 0 0 0 0 0
Neighs:          57787 ave       57787 max       57787 min
Histogram: 1 0 0 0 0 0 0 0 0 0

Total # of neighbors = 57787
Ave neighs/atom = 84.114993
Neighbor list builds = 0
Dangerous builds = 0
    variable l1 equal 1.0-1.0
    variable l2 equal 0.0+1.0
    run 0
Per MPI rank memory allocation (min/avg/max) = 12.34 | 12.34 | 12.34 Mbytes
   Step          Temp          E_pair         E_mol          TotEng         Press     
       161   1.0854865e-06 -2828.46        0             -2828.46        3213.109     
Loop time of 3.75e-07 on 1 procs for 0 steps with 687 atoms

800.0% CPU use with 1 MPI tasks x 1 OpenMP threads

MPI task timing breakdown:
Section |  min time  |  avg time  |  max time  |%varavg| %total
---------------------------------------------------------------
Pair    | 0          | 0          | 0          |   0.0 |  0.00
Neigh   | 0          | 0          | 0          |   0.0 |  0.00
Comm    | 0          | 0          | 0          |   0.0 |  0.00
Output  | 0          | 0          | 0          |   0.0 |  0.00
Modify  | 0          | 0          | 0          |   0.0 |  0.00
Other   |            | 3.75e-07   |            |       |100.00

Nlocal:            687 ave         687 max         687 min
Histogram: 1 0 0 0 0 0 0 0 0 0
Nghost:           3239 ave        3239 max        3239 min
Histogram: 1 0 0 0 0 0 0 0 0 0
Neighs:          57787 ave       57787 max       57787 min
Histogram: 1 0 0 0 0 0 0 0 0 0

Total # of neighbors = 57787
Ave neighs/atom = 84.114993
Neighbor list builds = 0
Dangerous builds = 0
    fix escale1 all adapt 1 pair eam/fs:1 scale * * v_l1
    fix escale2 all adapt 1 pair eam/fs:2 scale * * v_l2
    run 0
Per MPI rank memory allocation (min/avg/max) = 12.34 | 12.34 | 12.34 Mbytes
   Step          Temp          E_pair         E_mol          TotEng         Press     
       161   1.0854865e-06 -2828.4872      0             -2828.4872      3008.0097    
Loop time of 4.17e-07 on 1 procs for 0 steps with 687 atoms

239.8% CPU use with 1 MPI tasks x 1 OpenMP threads

MPI task timing breakdown:
Section |  min time  |  avg time  |  max time  |%varavg| %total
---------------------------------------------------------------
Pair    | 0          | 0          | 0          |   0.0 |  0.00
Neigh   | 0          | 0          | 0          |   0.0 |  0.00
Comm    | 0          | 0          | 0          |   0.0 |  0.00
Output  | 0          | 0          | 0          |   0.0 |  0.00
Modify  | 0          | 0          | 0          |   0.0 |  0.00
Other   |            | 4.17e-07   |            |       |100.00

Nlocal:            687 ave         687 max         687 min
Histogram: 1 0 0 0 0 0 0 0 0 0
Nghost:           3239 ave        3239 max        3239 min
Histogram: 1 0 0 0 0 0 0 0 0 0
Neighs:          57787 ave       57787 max       57787 min
Histogram: 1 0 0 0 0 0 0 0 0 0

Total # of neighbors = 57787
Ave neighs/atom = 84.114993
Neighbor list builds = 0
Dangerous builds = 0
    compute V_1 all pair eam/fs 1
    compute V_2 all pair eam/fs 2
    variable V_1 equal (c_V_1/(0.000001+v_l1))
    variable V_2 equal (c_V_2/(0.000001+v_l2))
    variable dV equal v_V_2-v_V_1
            change_box all x scale 1.0 y scale 1.0 z scale 1.0
Changing box ...
  orthogonal box = (0 0 0) to (19.987184 19.987184 19.987184)
  orthogonal box = (0 0 0) to (19.987184 19.987184 19.987184)
  orthogonal box = (0 0 0) to (19.987184 19.987184 19.987184)
            run 0
Per MPI rank memory allocation (min/avg/max) = 12.34 | 12.34 | 12.34 Mbytes
   Step          Temp          E_pair         E_mol          TotEng         Press     
       161   1.0854865e-06 -2828.4872      0             -2828.4872      3008.0097    
Loop time of 5e-07 on 1 procs for 0 steps with 687 atoms

0.0% CPU use with 1 MPI tasks x 1 OpenMP threads

MPI task timing breakdown:
Section |  min time  |  avg time  |  max time  |%varavg| %total
---------------------------------------------------------------
Pair    | 0          | 0          | 0          |   0.0 |  0.00
Neigh   | 0          | 0          | 0          |   0.0 |  0.00
Comm    | 0          | 0          | 0          |   0.0 |  0.00
Output  | 0          | 0          | 0          |   0.0 |  0.00
Modify  | 0          | 0          | 0          |   0.0 |  0.00
Other   |            | 5e-07      |            |       |100.00

Nlocal:            687 ave         687 max         687 min
Histogram: 1 0 0 0 0 0 0 0 0 0
Nghost:           3239 ave        3239 max        3239 min
Histogram: 1 0 0 0 0 0 0 0 0 0
Neighs:          57787 ave       57787 max       57787 min
Histogram: 1 0 0 0 0 0 0 0 0 0

Total # of neighbors = 57787
Ave neighs/atom = 84.114993
Neighbor list builds = 0
Dangerous builds = 0
run 0
Per MPI rank memory allocation (min/avg/max) = 12.34 | 12.34 | 12.34 Mbytes
   Step          Temp          E_pair         E_mol          TotEng         Press     
       161   1.0854865e-06 -2828.4872      0             -2828.4872      3008.0097    
Loop time of 4.59e-07 on 1 procs for 0 steps with 687 atoms

435.7% CPU use with 1 MPI tasks x 1 OpenMP threads

MPI task timing breakdown:
Section |  min time  |  avg time  |  max time  |%varavg| %total
---------------------------------------------------------------
Pair    | 0          | 0          | 0          |   0.0 |  0.00
Neigh   | 0          | 0          | 0          |   0.0 |  0.00
Comm    | 0          | 0          | 0          |   0.0 |  0.00
Output  | 0          | 0          | 0          |   0.0 |  0.00
Modify  | 0          | 0          | 0          |   0.0 |  0.00
Other   |            | 4.59e-07   |            |       |100.00

Nlocal:            687 ave         687 max         687 min
Histogram: 1 0 0 0 0 0 0 0 0 0
Nghost:           3239 ave        3239 max        3239 min
Histogram: 1 0 0 0 0 0 0 0 0 0
Neighs:          57787 ave       57787 max       57787 min
Histogram: 1 0 0 0 0 0 0 0 0 0

Total # of neighbors = 57787
Ave neighs/atom = 84.114993
Neighbor list builds = 0
Dangerous builds = 0
fix pafi all pafi __pafipath 0.0 0.05 4962 overdamped 0 com 1
fix pafi compute name,style: __pafipath,property/atom
run 0
Per MPI rank memory allocation (min/avg/max) = 12.72 | 12.72 | 12.72 Mbytes
   Step          Temp          E_pair         E_mol          TotEng         Press     
       161   1.0854865e-06 -2828.4872      0             -2828.4872      3008.0097    
Loop time of 4.58e-07 on 1 procs for 0 steps with 687 atoms

218.3% CPU use with 1 MPI tasks x 1 OpenMP threads

MPI task timing breakdown:
Section |  min time  |  avg time  |  max time  |%varavg| %total
---------------------------------------------------------------
Pair    | 0          | 0          | 0          |   0.0 |  0.00
Neigh   | 0          | 0          | 0          |   0.0 |  0.00
Comm    | 0          | 0          | 0          |   0.0 |  0.00
Output  | 0          | 0          | 0          |   0.0 |  0.00
Modify  | 0          | 0          | 0          |   0.0 |  0.00
Other   |            | 4.58e-07   |            |       |100.00

Nlocal:            687 ave         687 max         687 min
Histogram: 1 0 0 0 0 0 0 0 0 0
Nghost:           3239 ave        3239 max        3239 min
Histogram: 1 0 0 0 0 0 0 0 0 0
Neighs:          57787 ave       57787 max       57787 min
Histogram: 1 0 0 0 0 0 0 0 0 0

Total # of neighbors = 57787
Ave neighs/atom = 84.114993
Neighbor list builds = 0
Dangerous builds = 0
            reset_timestep 0
            fix __ae all ave/time 1 10 10 c_thermo_temp
            run 10
Per MPI rank memory allocation (min/avg/max) = 12.72 | 12.72 | 12.72 Mbytes
   Step          Temp          E_pair         E_mol          TotEng         Press     
         0   1.0854865e-06 -2828.4872      0             -2828.4872      3008.0097    
        10   0.1176578     -2828.4991      0             -2828.4886      3010.8062    
Loop time of 0.01498 on 1 procs for 10 steps with 687 atoms

Performance: 57.677 ns/day, 0.416 hours/ns, 667.559 timesteps/s, 458.613 katom-step/s
99.7% CPU use with 1 MPI tasks x 1 OpenMP threads

MPI task timing breakdown:
Section |  min time  |  avg time  |  max time  |%varavg| %total
---------------------------------------------------------------
Pair    | 0.014418   | 0.014418   | 0.014418   |   0.0 | 96.25
Neigh   | 0          | 0          | 0          |   0.0 |  0.00
Comm    | 7.4832e-05 | 7.4832e-05 | 7.4832e-05 |   0.0 |  0.50
Output  | 3.542e-06  | 3.542e-06  | 3.542e-06  |   0.0 |  0.02
Modify  | 0.0004725  | 0.0004725  | 0.0004725  |   0.0 |  3.15
Other   |            | 1.113e-05  |            |       |  0.07

Nlocal:            687 ave         687 max         687 min
Histogram: 1 0 0 0 0 0 0 0 0 0
Nghost:           3239 ave        3239 max        3239 min
Histogram: 1 0 0 0 0 0 0 0 0 0
Neighs:          57787 ave       57787 max       57787 min
Histogram: 1 0 0 0 0 0 0 0 0 0

Total # of neighbors = 57787
Ave neighs/atom = 84.114993
Neighbor list builds = 0
Dangerous builds = 0
        
            unfix __ae
            run 0
Per MPI rank memory allocation (min/avg/max) = 12.72 | 12.72 | 12.72 Mbytes
   Step          Temp          E_pair         E_mol          TotEng         Press     
        10   0.1176578     -2828.4991      0             -2828.4886      3010.8062    
Loop time of 3.75e-07 on 1 procs for 0 steps with 687 atoms

266.7% CPU use with 1 MPI tasks x 1 OpenMP threads

MPI task timing breakdown:
Section |  min time  |  avg time  |  max time  |%varavg| %total
---------------------------------------------------------------
Pair    | 0          | 0          | 0          |   0.0 |  0.00
Neigh   | 0          | 0          | 0          |   0.0 |  0.00
Comm    | 0          | 0          | 0          |   0.0 |  0.00
Output  | 0          | 0          | 0          |   0.0 |  0.00
Modify  | 0          | 0          | 0          |   0.0 |  0.00
Other   |            | 3.75e-07   |            |       |100.00

Nlocal:            687 ave         687 max         687 min
Histogram: 1 0 0 0 0 0 0 0 0 0
Nghost:           3239 ave        3239 max        3239 min
Histogram: 1 0 0 0 0 0 0 0 0 0
Neighs:          57787 ave       57787 max       57787 min
Histogram: 1 0 0 0 0 0 0 0 0 0

Total # of neighbors = 57787
Ave neighs/atom = 84.114993
Neighbor list builds = 0
Dangerous builds = 0
            reset_timestep 0
            fix __ae all ave/time 1 50 50 c_thermo_temp
            
            fix avepafi all ave/time 1 50 50 f_pafi[*]
        
            #fix dV all ave/time 1 50 50 v_dV
            run 50
Per MPI rank memory allocation (min/avg/max) = 12.72 | 12.72 | 12.72 Mbytes
   Step          Temp          E_pair         E_mol          TotEng         Press     
         0   0.1176578     -2828.4991      0             -2828.4886      3010.8062    
        50   0.23072817    -2828.5631      0             -2828.5427      3139.5284    
Loop time of 0.0722913 on 1 procs for 50 steps with 687 atoms

Performance: 59.758 ns/day, 0.402 hours/ns, 691.646 timesteps/s, 475.161 katom-step/s
99.7% CPU use with 1 MPI tasks x 1 OpenMP threads

MPI task timing breakdown:
Section |  min time  |  avg time  |  max time  |%varavg| %total
---------------------------------------------------------------
Pair    | 0.069463   | 0.069463   | 0.069463   |   0.0 | 96.09
Neigh   | 0          | 0          | 0          |   0.0 |  0.00
Comm    | 0.000376   | 0.000376   | 0.000376   |   0.0 |  0.52
Output  | 9.541e-06  | 9.541e-06  | 9.541e-06  |   0.0 |  0.01
Modify  | 0.0023893  | 0.0023893  | 0.0023893  |   0.0 |  3.31
Other   |            | 5.379e-05  |            |       |  0.07

Nlocal:            687 ave         687 max         687 min
Histogram: 1 0 0 0 0 0 0 0 0 0
Nghost:           3239 ave        3239 max        3239 min
Histogram: 1 0 0 0 0 0 0 0 0 0
Neighs:          57787 ave       57787 max       57787 min
Histogram: 1 0 0 0 0 0 0 0 0 0

Total # of neighbors = 57787
Ave neighs/atom = 84.114993
Neighbor list builds = 0
Dangerous builds = 0
        
unfix avepafi
            unfix __ae
            run 0
Per MPI rank memory allocation (min/avg/max) = 12.72 | 12.72 | 12.72 Mbytes
   Step          Temp          E_pair         E_mol          TotEng         Press     
        50   0.23072817    -2828.5631      0             -2828.5427      3139.5284    
Loop time of 5.42e-07 on 1 procs for 0 steps with 687 atoms

369.0% CPU use with 1 MPI tasks x 1 OpenMP threads

MPI task timing breakdown:
Section |  min time  |  avg time  |  max time  |%varavg| %total
---------------------------------------------------------------
Pair    | 0          | 0          | 0          |   0.0 |  0.00
Neigh   | 0          | 0          | 0          |   0.0 |  0.00
Comm    | 0          | 0          | 0          |   0.0 |  0.00
Output  | 0          | 0          | 0          |   0.0 |  0.00
Modify  | 0          | 0          | 0          |   0.0 |  0.00
Other   |            | 5.42e-07   |            |       |100.00

Nlocal:            687 ave         687 max         687 min
Histogram: 1 0 0 0 0 0 0 0 0 0
Nghost:           3239 ave        3239 max        3239 min
Histogram: 1 0 0 0 0 0 0 0 0 0
Neighs:          57787 ave       57787 max       57787 min
Histogram: 1 0 0 0 0 0 0 0 0 0

Total # of neighbors = 57787
Ave neighs/atom = 84.114993
Neighbor list builds = 0
Dangerous builds = 0
            min_style fire
            minimize 0 0.0001 1000 1000
Switching to 'neigh_modify every 1 delay 0 check yes' setting during minimization
  Parameters for fire:
    dmax  delaystep dtgrow dtshrink alpha0 alphashrink tmax tmin   integrator   halfstepback   abcfire  
     0.1     20      1.1     0.5     0.25     0.99      10  0.02 eulerimplicit      yes          no     
Per MPI rank memory allocation (min/avg/max) = 12.72 | 12.72 | 12.72 Mbytes
   Step          Temp          E_pair         E_mol          TotEng         Press     
        50   0             -2828.5631      0             -2828.5631      3136.7915    
       150   2.8640175e-06 -2828.578       0             -2828.578       3169.3014    
Loop time of 0.182364 on 1 procs for 100 steps with 687 atoms

99.6% CPU use with 1 MPI tasks x 1 OpenMP threads

Minimization stats:
  Stopping criterion = force tolerance
  Energy initial, next-to-last, final = 
     -2828.56314465347  -2828.57802053475  -2828.57802054027
  Force two-norm initial, final = 0.44163651 5.2301154e-05
  Force max component initial, final = 0.080317597 1.1511065e-05
  Final line search alpha, max atom move = 0 0
  Iterations, force evaluations = 100 103

MPI task timing breakdown:
Section |  min time  |  avg time  |  max time  |%varavg| %total
---------------------------------------------------------------
Pair    | 0.17881    | 0.17881    | 0.17881    |   0.0 | 98.05
Neigh   | 0          | 0          | 0          |   0.0 |  0.00
Comm    | 0.00079437 | 0.00079437 | 0.00079437 |   0.0 |  0.44
Output  | 0          | 0          | 0          |   0.0 |  0.00
Modify  | 0.001754   | 0.001754   | 0.001754   |   0.0 |  0.96
Other   |            | 0.001008   |            |       |  0.55

Nlocal:            687 ave         687 max         687 min
Histogram: 1 0 0 0 0 0 0 0 0 0
Nghost:           3239 ave        3239 max        3239 min
Histogram: 1 0 0 0 0 0 0 0 0 0
Neighs:          57787 ave       57787 max       57787 min
Histogram: 1 0 0 0 0 0 0 0 0 0

Total # of neighbors = 57787
Ave neighs/atom = 84.114993
Neighbor list builds = 0
Dangerous builds = 0
        
unfix pafi
    variable dV delete
    uncompute V_1
    uncompute V_2
    unfix escale1
    unfix escale2
            change_box all x scale 1.0 y scale 1.0 z scale 1.0
Changing box ...
  orthogonal box = (0 0 0) to (19.987184 19.987184 19.987184)
  orthogonal box = (0 0 0) to (19.987184 19.987184 19.987184)
  orthogonal box = (0 0 0) to (19.987184 19.987184 19.987184)
            run 0
Per MPI rank memory allocation (min/avg/max) = 12.34 | 12.34 | 12.34 Mbytes
   Step          Temp          E_pair         E_mol          TotEng         Press     
       150   2.8640175e-06 -2828.578       0             -2828.578       3169.3014    
Loop time of 5.84e-07 on 1 procs for 0 steps with 687 atoms

171.2% CPU use with 1 MPI tasks x 1 OpenMP threads

MPI task timing breakdown:
Section |  min time  |  avg time  |  max time  |%varavg| %total
---------------------------------------------------------------
Pair    | 0          | 0          | 0          |   0.0 |  0.00
Neigh   | 0          | 0          | 0          |   0.0 |  0.00
Comm    | 0          | 0          | 0          |   0.0 |  0.00
Output  | 0          | 0          | 0          |   0.0 |  0.00
Modify  | 0          | 0          | 0          |   0.0 |  0.00
Other   |            | 5.84e-07   |            |       |100.00

Nlocal:            687 ave         687 max         687 min
Histogram: 1 0 0 0 0 0 0 0 0 0
Nghost:           3239 ave        3239 max        3239 min
Histogram: 1 0 0 0 0 0 0 0 0 0
Neighs:          57787 ave       57787 max       57787 min
Histogram: 1 0 0 0 0 0 0 0 0 0

Total # of neighbors = 57787
Ave neighs/atom = 84.114993
Neighbor list builds = 0
Dangerous builds = 0
run 0
Per MPI rank memory allocation (min/avg/max) = 12.34 | 12.34 | 12.34 Mbytes
   Step          Temp          E_pair         E_mol          TotEng         Press     
       150   2.8640175e-06 -2828.4872      0             -2828.4872      3008.0097    
Loop time of 4.17e-07 on 1 procs for 0 steps with 687 atoms

239.8% CPU use with 1 MPI tasks x 1 OpenMP threads

MPI task timing breakdown:
Section |  min time  |  avg time  |  max time  |%varavg| %total
---------------------------------------------------------------
Pair    | 0          | 0          | 0          |   0.0 |  0.00
Neigh   | 0          | 0          | 0          |   0.0 |  0.00
Comm    | 0          | 0          | 0          |   0.0 |  0.00
Output  | 0          | 0          | 0          |   0.0 |  0.00
Modify  | 0          | 0          | 0          |   0.0 |  0.00
Other   |            | 4.17e-07   |            |       |100.00

Nlocal:            687 ave         687 max         687 min
Histogram: 1 0 0 0 0 0 0 0 0 0
Nghost:           3239 ave        3239 max        3239 min
Histogram: 1 0 0 0 0 0 0 0 0 0
Neighs:          57787 ave       57787 max       57787 min
Histogram: 1 0 0 0 0 0 0 0 0 0

Total # of neighbors = 57787
Ave neighs/atom = 84.114993
Neighbor list builds = 0
Dangerous builds = 0
Total wall time: 0:00:05
