LAMMPS (28 Mar 2023 - Development)
WARNING: Using I/O redirection is unreliable with parallel runs. Better to use the -in switch to read input files. (src/lammps.cpp:531)
OMP_NUM_THREADS environment is not set. Defaulting to 1 thread. (src/comm.cpp:98)
  using 1 OpenMP thread(s) per MPI task
    units metal
    atom_style atomic
    atom_modify map array sort 0 0.0
    neigh_modify every 2 delay 10 check yes page 1000000 one 100000
    read_data  ../examples/systems/EAM-EAM-SIA-Fe/image_1.dat
Reading data file ...
  orthogonal box = (0 0 0) to (19.987184 19.987184 19.987184)
  1 by 1 by 2 MPI processor grid
  reading atoms ...
  687 atoms
  reading velocities ...
  687 velocities
  read_data CPU = 0.003 seconds
    pair_style    hybrid/overlay eam/fs eam/fs
    pair_coeff * * eam/fs 1 ../examples/systems/EAM-EAM-SIA-Fe/Fe.eam.fs Fe
    pair_coeff * * eam/fs 2 ../examples/systems/EAM-EAM-SIA-Fe/Fe_mm.eam.fs Fe
Reading eam/fs potential file ../examples/systems/EAM-EAM-SIA-Fe/Fe_mm.eam.fs with DATE: 2007-06-11
    run 0
WARNING: No fixes with time integration, atoms won't move (src/verlet.cpp:60)
Neighbor list info ...
  update: every = 2 steps, delay = 10 steps, check = yes
  max neighbors/atom: 100000, page size: 1000000
  master list distance cutoff = 7.8
  ghost atom cutoff = 7.8
  binsize = 3.9, bins = 6 6 6
  2 neighbor lists, perpetual/occasional/extra = 2 0 0
  (1) pair eam/fs, perpetual
      attributes: half, newton on
      pair build: half/bin/atomonly/newton
      stencil: half/bin/3d
      bin: standard
  (2) pair eam/fs, perpetual, trim from (1)
      attributes: half, newton on, cut 7.3
      pair build: trim
      stencil: none
      bin: none
Per MPI rank memory allocation (min/avg/max) = 11.08 | 11.08 | 11.08 Mbytes
   Step          Temp          E_pair         E_mol          TotEng         Press     
         0   2.3194503e-19 -5656.8657      0             -5656.8657      6836.4165    
Loop time of 4.4625e-05 on 2 procs for 0 steps with 687 atoms

32.5% CPU use with 2 MPI tasks x 1 OpenMP threads

MPI task timing breakdown:
Section |  min time  |  avg time  |  max time  |%varavg| %total
---------------------------------------------------------------
Pair    | 0          | 0          | 0          |   0.0 |  0.00
Neigh   | 0          | 0          | 0          |   0.0 |  0.00
Comm    | 0          | 0          | 0          |   0.0 |  0.00
Output  | 0          | 0          | 0          |   0.0 |  0.00
Modify  | 0          | 0          | 0          |   0.0 |  0.00
Other   |            | 4.462e-05  |            |       |100.00

Nlocal:          343.5 ave         344 max         343 min
Histogram: 1 0 0 0 0 0 0 0 0 1
Nghost:         2474.5 ave        2475 max        2474 min
Histogram: 1 0 0 0 0 0 0 0 0 1
Neighs:        28893.5 ave       29837 max       27950 min
Histogram: 1 0 0 0 0 0 0 0 0 1

Total # of neighbors = 57787
Ave neighs/atom = 84.114993
Neighbor list builds = 0
Dangerous builds = 0
            delete_atoms group all
Deleted 687 atoms, new total = 0
            read_data ../examples/systems/EAM-EAM-SIA-Fe/image_1.dat add merge
Reading data file ...
  orthogonal box = (0 0 0) to (19.987184 19.987184 19.987184)
  1 by 1 by 2 MPI processor grid
  reading atoms ...
  687 atoms
  reading velocities ...
  687 velocities
  read_data CPU = 0.006 seconds
        
            delete_atoms group all
Deleted 687 atoms, new total = 0
            read_data ../examples/systems/EAM-EAM-SIA-Fe/image_2.dat add merge
Reading data file ...
  orthogonal box = (0 0 0) to (19.987184 19.987184 19.987184)
  1 by 1 by 2 MPI processor grid
  reading atoms ...
  687 atoms
  reading velocities ...
  687 velocities
  read_data CPU = 0.012 seconds
        
            delete_atoms group all
Deleted 687 atoms, new total = 0
            read_data ../examples/systems/EAM-EAM-SIA-Fe/image_3.dat add merge
Reading data file ...
  orthogonal box = (0 0 0) to (19.987184 19.987184 19.987184)
  1 by 1 by 2 MPI processor grid
  reading atoms ...
  687 atoms
  reading velocities ...
  687 velocities
  read_data CPU = 0.004 seconds
        
            delete_atoms group all
Deleted 687 atoms, new total = 0
            read_data ../examples/systems/EAM-EAM-SIA-Fe/image_4.dat add merge
Reading data file ...
  orthogonal box = (0 0 0) to (19.987184 19.987184 19.987184)
  1 by 1 by 2 MPI processor grid
  reading atoms ...
  687 atoms
  reading velocities ...
  687 velocities
  read_data CPU = 0.007 seconds
        
            delete_atoms group all
Deleted 687 atoms, new total = 0
            read_data ../examples/systems/EAM-EAM-SIA-Fe/image_5.dat add merge
Reading data file ...
  orthogonal box = (0 0 0) to (19.987184 19.987184 19.987184)
  1 by 1 by 2 MPI processor grid
  reading atoms ...
  687 atoms
  reading velocities ...
  687 velocities
  read_data CPU = 0.004 seconds
        
            delete_atoms group all
Deleted 687 atoms, new total = 0
            read_data ../examples/systems/EAM-EAM-SIA-Fe/image_6.dat add merge
Reading data file ...
  orthogonal box = (0 0 0) to (19.987184 19.987184 19.987184)
  1 by 1 by 2 MPI processor grid
  reading atoms ...
  687 atoms
  reading velocities ...
  687 velocities
  read_data CPU = 0.010 seconds
        
            delete_atoms group all
Deleted 687 atoms, new total = 0
            read_data ../examples/systems/EAM-EAM-SIA-Fe/image_7.dat add merge
Reading data file ...
  orthogonal box = (0 0 0) to (19.987184 19.987184 19.987184)
  1 by 1 by 2 MPI processor grid
  reading atoms ...
  687 atoms
  reading velocities ...
  687 velocities
  read_data CPU = 0.006 seconds
        
            delete_atoms group all
Deleted 687 atoms, new total = 0
            read_data ../examples/systems/EAM-EAM-SIA-Fe/image_8.dat add merge
Reading data file ...
  orthogonal box = (0 0 0) to (19.987184 19.987184 19.987184)
  1 by 1 by 2 MPI processor grid
  reading atoms ...
  687 atoms
  reading velocities ...
  687 velocities
  read_data CPU = 0.005 seconds
        
            delete_atoms group all
Deleted 687 atoms, new total = 0
            read_data ../examples/systems/EAM-EAM-SIA-Fe/image_9.dat add merge
Reading data file ...
  orthogonal box = (0 0 0) to (19.987184 19.987184 19.987184)
  1 by 1 by 2 MPI processor grid
  reading atoms ...
  687 atoms
  reading velocities ...
  687 velocities
  read_data CPU = 0.003 seconds
        
            change_box all x scale 1.0 y scale 1.0 z scale 1.0
Changing box ...
  orthogonal box = (0 0 0) to (19.987184 19.987184 19.987184)
  orthogonal box = (0 0 0) to (19.987184 19.987184 19.987184)
  orthogonal box = (0 0 0) to (19.987184 19.987184 19.987184)
            run 0
WARNING: No fixes with time integration, atoms won't move (src/verlet.cpp:60)
Per MPI rank memory allocation (min/avg/max) = 11.08 | 11.08 | 11.08 Mbytes
   Step          Temp          E_pair         E_mol          TotEng         Press     
         0   2.3196587e-19 -5656.8657      0             -5656.8657      6836.4165    
Loop time of 2.45415e-05 on 2 procs for 0 steps with 687 atoms

59.1% CPU use with 2 MPI tasks x 1 OpenMP threads

MPI task timing breakdown:
Section |  min time  |  avg time  |  max time  |%varavg| %total
---------------------------------------------------------------
Pair    | 0          | 0          | 0          |   0.0 |  0.00
Neigh   | 0          | 0          | 0          |   0.0 |  0.00
Comm    | 0          | 0          | 0          |   0.0 |  0.00
Output  | 0          | 0          | 0          |   0.0 |  0.00
Modify  | 0          | 0          | 0          |   0.0 |  0.00
Other   |            | 2.454e-05  |            |       |100.00

Nlocal:          343.5 ave         363 max         324 min
Histogram: 1 0 0 0 0 0 0 0 0 1
Nghost:         2474.5 ave        2494 max        2455 min
Histogram: 1 0 0 0 0 0 0 0 0 1
Neighs:        28893.5 ave       29477 max       28310 min
Histogram: 1 0 0 0 0 0 0 0 0 1

Total # of neighbors = 57787
Ave neighs/atom = 84.114993
Neighbor list builds = 0
Dangerous builds = 0
            fix __pafipath all property/atom d_ux d_uy d_uz d_nx d_ny d_nz d_dnx d_dny d_dnz
            run 0
WARNING: No fixes with time integration, atoms won't move (src/verlet.cpp:60)
Per MPI rank memory allocation (min/avg/max) = 11.2 | 11.2 | 11.2 Mbytes
   Step          Temp          E_pair         E_mol          TotEng         Press     
         0   2.3196587e-19 -5656.8657      0             -5656.8657      6836.4165    
Loop time of 1.0625e-06 on 2 procs for 0 steps with 687 atoms

188.2% CPU use with 2 MPI tasks x 1 OpenMP threads

MPI task timing breakdown:
Section |  min time  |  avg time  |  max time  |%varavg| %total
---------------------------------------------------------------
Pair    | 0          | 0          | 0          |   0.0 |  0.00
Neigh   | 0          | 0          | 0          |   0.0 |  0.00
Comm    | 0          | 0          | 0          |   0.0 |  0.00
Output  | 0          | 0          | 0          |   0.0 |  0.00
Modify  | 0          | 0          | 0          |   0.0 |  0.00
Other   |            | 1.063e-06  |            |       |100.00

Nlocal:          343.5 ave         363 max         324 min
Histogram: 1 0 0 0 0 0 0 0 0 1
Nghost:         2474.5 ave        2494 max        2455 min
Histogram: 1 0 0 0 0 0 0 0 0 1
Neighs:        28893.5 ave       29477 max       28310 min
Histogram: 1 0 0 0 0 0 0 0 0 1

Total # of neighbors = 57787
Ave neighs/atom = 84.114993
Neighbor list builds = 0
Dangerous builds = 0
run 0
WARNING: No fixes with time integration, atoms won't move (src/verlet.cpp:60)
Per MPI rank memory allocation (min/avg/max) = 11.2 | 11.2 | 11.2 Mbytes
   Step          Temp          E_pair         E_mol          TotEng         Press     
         0   2.3196587e-19 -5656.8657      0             -5656.8657      6836.4165    
Loop time of 8.54e-07 on 2 procs for 0 steps with 687 atoms

117.1% CPU use with 2 MPI tasks x 1 OpenMP threads

MPI task timing breakdown:
Section |  min time  |  avg time  |  max time  |%varavg| %total
---------------------------------------------------------------
Pair    | 0          | 0          | 0          |   0.0 |  0.00
Neigh   | 0          | 0          | 0          |   0.0 |  0.00
Comm    | 0          | 0          | 0          |   0.0 |  0.00
Output  | 0          | 0          | 0          |   0.0 |  0.00
Modify  | 0          | 0          | 0          |   0.0 |  0.00
Other   |            | 8.54e-07   |            |       |100.00

Nlocal:          343.5 ave         344 max         343 min
Histogram: 1 0 0 0 0 0 0 0 0 1
Nghost:         2474.5 ave        2475 max        2474 min
Histogram: 1 0 0 0 0 0 0 0 0 1
Neighs:        28893.5 ave       29837 max       27950 min
Histogram: 1 0 0 0 0 0 0 0 0 1

Total # of neighbors = 57787
Ave neighs/atom = 84.114993
Neighbor list builds = 0
Dangerous builds = 0
            compute __pafipath all property/atom d_ux d_uy d_uz d_nx d_ny d_nz d_dnx d_dny d_dnz
            run 0
WARNING: No fixes with time integration, atoms won't move (src/verlet.cpp:60)
Per MPI rank memory allocation (min/avg/max) = 11.2 | 11.2 | 11.2 Mbytes
   Step          Temp          E_pair         E_mol          TotEng         Press     
         0   2.3196587e-19 -5656.8657      0             -5656.8657      6836.4165    
Loop time of 1.104e-06 on 2 procs for 0 steps with 687 atoms

45.3% CPU use with 2 MPI tasks x 1 OpenMP threads

MPI task timing breakdown:
Section |  min time  |  avg time  |  max time  |%varavg| %total
---------------------------------------------------------------
Pair    | 0          | 0          | 0          |   0.0 |  0.00
Neigh   | 0          | 0          | 0          |   0.0 |  0.00
Comm    | 0          | 0          | 0          |   0.0 |  0.00
Output  | 0          | 0          | 0          |   0.0 |  0.00
Modify  | 0          | 0          | 0          |   0.0 |  0.00
Other   |            | 1.104e-06  |            |       |100.00

Nlocal:          343.5 ave         344 max         343 min
Histogram: 1 0 0 0 0 0 0 0 0 1
Nghost:         2474.5 ave        2475 max        2474 min
Histogram: 1 0 0 0 0 0 0 0 0 1
Neighs:        28893.5 ave       29837 max       27950 min
Histogram: 1 0 0 0 0 0 0 0 0 1

Total # of neighbors = 57787
Ave neighs/atom = 84.114993
Neighbor list builds = 0
Dangerous builds = 0
    variable l1 equal 1.0-%Lambda%
    variable l2 equal 0.0+%Lambda%
    run 0
WARNING: No fixes with time integration, atoms won't move (src/verlet.cpp:60)
Per MPI rank memory allocation (min/avg/max) = 11.2 | 11.2 | 11.2 Mbytes
   Step          Temp          E_pair         E_mol          TotEng         Press     
         0   2.3196587e-19 -5656.8657      0             -5656.8657      6836.4165    
Loop time of 8.545e-07 on 2 procs for 0 steps with 687 atoms

0.0% CPU use with 2 MPI tasks x 1 OpenMP threads

MPI task timing breakdown:
Section |  min time  |  avg time  |  max time  |%varavg| %total
---------------------------------------------------------------
Pair    | 0          | 0          | 0          |   0.0 |  0.00
Neigh   | 0          | 0          | 0          |   0.0 |  0.00
Comm    | 0          | 0          | 0          |   0.0 |  0.00
Output  | 0          | 0          | 0          |   0.0 |  0.00
Modify  | 0          | 0          | 0          |   0.0 |  0.00
Other   |            | 8.545e-07  |            |       |100.00

Nlocal:          343.5 ave         344 max         343 min
Histogram: 1 0 0 0 0 0 0 0 0 1
Nghost:         2474.5 ave        2475 max        2474 min
Histogram: 1 0 0 0 0 0 0 0 0 1
Neighs:        28893.5 ave       29837 max       27950 min
Histogram: 1 0 0 0 0 0 0 0 0 1

Total # of neighbors = 57787
Ave neighs/atom = 84.114993
Neighbor list builds = 0
Dangerous builds = 0
