LAMMPS (28 Mar 2023 - Update 1)
OMP_NUM_THREADS environment is not set. Defaulting to 1 thread. (src/comm.cpp:98)
  using 1 OpenMP thread(s) per MPI task
clear
OMP_NUM_THREADS environment is not set. Defaulting to 1 thread. (src/comm.cpp:98)
  using 1 OpenMP thread(s) per MPI task
units metal
atom_style atomic
atom_modify map array sort 0 0.0
neigh_modify every 2 delay 10 check yes page 1000000 one 100000
read_data  ../systems/EAM-EAM-SIA-Fe/image_1.dat
Reading data file ...
  orthogonal box = (0 0 0) to (19.987184 19.987184 19.987184)
  1 by 1 by 1 MPI processor grid
  reading atoms ...
  687 atoms
  reading velocities ...
  687 velocities
  read_data CPU = 0.004 seconds
pair_style    hybrid/overlay eam/fs eam/fs
pair_coeff * * eam/fs 1 ../systems/EAM-EAM-SIA-Fe/Fe.eam.fs Fe
pair_coeff * * eam/fs 2 ../systems/EAM-EAM-SIA-Fe/Fe_mm.eam.fs Fe
Reading eam/fs potential file ../systems/EAM-EAM-SIA-Fe/Fe_mm.eam.fs with DATE: 2007-06-11
run 0
WARNING: No fixes with time integration, atoms won't move (src/verlet.cpp:60)
Neighbor list info ...
  update: every = 2 steps, delay = 10 steps, check = yes
  max neighbors/atom: 100000, page size: 1000000
  master list distance cutoff = 7.8
  ghost atom cutoff = 7.8
  binsize = 3.9, bins = 6 6 6
  2 neighbor lists, perpetual/occasional/extra = 2 0 0
  (1) pair eam/fs, perpetual
      attributes: half, newton on
      pair build: half/bin/atomonly/newton
      stencil: half/bin/3d
      bin: standard
  (2) pair eam/fs, perpetual, trim from (1)
      attributes: half, newton on, cut 7.3
      pair build: trim
      stencil: none
      bin: none
Per MPI rank memory allocation (min/avg/max) = 11.09 | 11.09 | 11.09 Mbytes
   Step          Temp          E_pair         E_mol          TotEng         Press     
         0   2.3194503e-19 -5656.8657      0             -5656.8657      6836.4165    
Loop time of 3.33e-07 on 1 procs for 0 steps with 687 atoms

300.3% CPU use with 1 MPI tasks x 1 OpenMP threads

MPI task timing breakdown:
Section |  min time  |  avg time  |  max time  |%varavg| %total
---------------------------------------------------------------
Pair    | 0          | 0          | 0          |   0.0 |  0.00
Neigh   | 0          | 0          | 0          |   0.0 |  0.00
Comm    | 0          | 0          | 0          |   0.0 |  0.00
Output  | 0          | 0          | 0          |   0.0 |  0.00
Modify  | 0          | 0          | 0          |   0.0 |  0.00
Other   |            | 3.33e-07   |            |       |100.00

Nlocal:            687 ave         687 max         687 min
Histogram: 1 0 0 0 0 0 0 0 0 0
Nghost:           3239 ave        3239 max        3239 min
Histogram: 1 0 0 0 0 0 0 0 0 0
Neighs:          57787 ave       57787 max       57787 min
Histogram: 1 0 0 0 0 0 0 0 0 0

Total # of neighbors = 57787
Ave neighs/atom = 84.114993
Neighbor list builds = 0
Dangerous builds = 0
run 0
WARNING: No fixes with time integration, atoms won't move (src/verlet.cpp:60)
Per MPI rank memory allocation (min/avg/max) = 11.09 | 11.09 | 11.09 Mbytes
   Step          Temp          E_pair         E_mol          TotEng         Press     
         0   2.3194503e-19 -5656.8657      0             -5656.8657      6836.4165    
Loop time of 3.33e-07 on 1 procs for 0 steps with 687 atoms

1201.2% CPU use with 1 MPI tasks x 1 OpenMP threads

MPI task timing breakdown:
Section |  min time  |  avg time  |  max time  |%varavg| %total
---------------------------------------------------------------
Pair    | 0          | 0          | 0          |   0.0 |  0.00
Neigh   | 0          | 0          | 0          |   0.0 |  0.00
Comm    | 0          | 0          | 0          |   0.0 |  0.00
Output  | 0          | 0          | 0          |   0.0 |  0.00
Modify  | 0          | 0          | 0          |   0.0 |  0.00
Other   |            | 3.33e-07   |            |       |100.00

Nlocal:            687 ave         687 max         687 min
Histogram: 1 0 0 0 0 0 0 0 0 0
Nghost:           3239 ave        3239 max        3239 min
Histogram: 1 0 0 0 0 0 0 0 0 0
Neighs:          57787 ave       57787 max       57787 min
Histogram: 1 0 0 0 0 0 0 0 0 0

Total # of neighbors = 57787
Ave neighs/atom = 84.114993
Neighbor list builds = 0
Dangerous builds = 0
delete_atoms group all
Deleted 687 atoms, new total = 0
read_data ../systems/EAM-EAM-SIA-Fe/image_1.dat add merge
Reading data file ...
  orthogonal box = (0 0 0) to (19.987184 19.987184 19.987184)
  1 by 1 by 1 MPI processor grid
  reading atoms ...
  687 atoms
  reading velocities ...
  687 velocities
  read_data CPU = 0.003 seconds
delete_atoms group all
Deleted 687 atoms, new total = 0
read_data ../systems/EAM-EAM-SIA-Fe/image_2.dat add merge
Reading data file ...
  orthogonal box = (0 0 0) to (19.987184 19.987184 19.987184)
  1 by 1 by 1 MPI processor grid
  reading atoms ...
  687 atoms
  reading velocities ...
  687 velocities
  read_data CPU = 0.003 seconds
delete_atoms group all
Deleted 687 atoms, new total = 0
read_data ../systems/EAM-EAM-SIA-Fe/image_3.dat add merge
Reading data file ...
  orthogonal box = (0 0 0) to (19.987184 19.987184 19.987184)
  1 by 1 by 1 MPI processor grid
  reading atoms ...
  687 atoms
  reading velocities ...
  687 velocities
  read_data CPU = 0.003 seconds
delete_atoms group all
Deleted 687 atoms, new total = 0
read_data ../systems/EAM-EAM-SIA-Fe/image_4.dat add merge
Reading data file ...
  orthogonal box = (0 0 0) to (19.987184 19.987184 19.987184)
  1 by 1 by 1 MPI processor grid
  reading atoms ...
  687 atoms
  reading velocities ...
  687 velocities
  read_data CPU = 0.003 seconds
delete_atoms group all
Deleted 687 atoms, new total = 0
read_data ../systems/EAM-EAM-SIA-Fe/image_5.dat add merge
Reading data file ...
  orthogonal box = (0 0 0) to (19.987184 19.987184 19.987184)
  1 by 1 by 1 MPI processor grid
  reading atoms ...
  687 atoms
  reading velocities ...
  687 velocities
  read_data CPU = 0.003 seconds
delete_atoms group all
Deleted 687 atoms, new total = 0
read_data ../systems/EAM-EAM-SIA-Fe/image_6.dat add merge
Reading data file ...
  orthogonal box = (0 0 0) to (19.987184 19.987184 19.987184)
  1 by 1 by 1 MPI processor grid
  reading atoms ...
  687 atoms
  reading velocities ...
  687 velocities
  read_data CPU = 0.003 seconds
delete_atoms group all
Deleted 687 atoms, new total = 0
read_data ../systems/EAM-EAM-SIA-Fe/image_7.dat add merge
Reading data file ...
  orthogonal box = (0 0 0) to (19.987184 19.987184 19.987184)
  1 by 1 by 1 MPI processor grid
  reading atoms ...
  687 atoms
  reading velocities ...
  687 velocities
  read_data CPU = 0.003 seconds
delete_atoms group all
Deleted 687 atoms, new total = 0
read_data ../systems/EAM-EAM-SIA-Fe/image_8.dat add merge
Reading data file ...
  orthogonal box = (0 0 0) to (19.987184 19.987184 19.987184)
  1 by 1 by 1 MPI processor grid
  reading atoms ...
  687 atoms
  reading velocities ...
  687 velocities
  read_data CPU = 0.003 seconds
delete_atoms group all
Deleted 687 atoms, new total = 0
read_data ../systems/EAM-EAM-SIA-Fe/image_9.dat add merge
Reading data file ...
  orthogonal box = (0 0 0) to (19.987184 19.987184 19.987184)
  1 by 1 by 1 MPI processor grid
  reading atoms ...
  687 atoms
  reading velocities ...
  687 velocities
  read_data CPU = 0.003 seconds
change_box all x scale 1.000000 y scale 1.000000 z scale 1.000000
Changing box ...
  orthogonal box = (0 0 0) to (19.987184 19.987184 19.987184)
  orthogonal box = (0 0 0) to (19.987184 19.987184 19.987184)
  orthogonal box = (0 0 0) to (19.987184 19.987184 19.987184)
run 0
WARNING: No fixes with time integration, atoms won't move (src/verlet.cpp:60)
Per MPI rank memory allocation (min/avg/max) = 11.09 | 11.09 | 11.09 Mbytes
   Step          Temp          E_pair         E_mol          TotEng         Press     
         0   2.3196587e-19 -5656.8657      0             -5656.8657      6836.4165    
Loop time of 6.25e-07 on 1 procs for 0 steps with 687 atoms

320.0% CPU use with 1 MPI tasks x 1 OpenMP threads

MPI task timing breakdown:
Section |  min time  |  avg time  |  max time  |%varavg| %total
---------------------------------------------------------------
Pair    | 0          | 0          | 0          |   0.0 |  0.00
Neigh   | 0          | 0          | 0          |   0.0 |  0.00
Comm    | 0          | 0          | 0          |   0.0 |  0.00
Output  | 0          | 0          | 0          |   0.0 |  0.00
Modify  | 0          | 0          | 0          |   0.0 |  0.00
Other   |            | 6.25e-07   |            |       |100.00

Nlocal:            687 ave         687 max         687 min
Histogram: 1 0 0 0 0 0 0 0 0 0
Nghost:           3239 ave        3239 max        3239 min
Histogram: 1 0 0 0 0 0 0 0 0 0
Neighs:          57787 ave       57787 max       57787 min
Histogram: 1 0 0 0 0 0 0 0 0 0

Total # of neighbors = 57787
Ave neighs/atom = 84.114993
Neighbor list builds = 0
Dangerous builds = 0
fix __pafipath all property/atom d_ux d_uy d_uz d_nx d_ny d_nz d_dnx d_dny d_dnz
run 0
WARNING: No fixes with time integration, atoms won't move (src/verlet.cpp:60)
Per MPI rank memory allocation (min/avg/max) = 11.22 | 11.22 | 11.22 Mbytes
   Step          Temp          E_pair         E_mol          TotEng         Press     
         0   2.3196587e-19 -5656.8657      0             -5656.8657      6836.4165    
Loop time of 4.58e-07 on 1 procs for 0 steps with 687 atoms

218.3% CPU use with 1 MPI tasks x 1 OpenMP threads

MPI task timing breakdown:
Section |  min time  |  avg time  |  max time  |%varavg| %total
---------------------------------------------------------------
Pair    | 0          | 0          | 0          |   0.0 |  0.00
Neigh   | 0          | 0          | 0          |   0.0 |  0.00
Comm    | 0          | 0          | 0          |   0.0 |  0.00
Output  | 0          | 0          | 0          |   0.0 |  0.00
Modify  | 0          | 0          | 0          |   0.0 |  0.00
Other   |            | 4.58e-07   |            |       |100.00

Nlocal:            687 ave         687 max         687 min
Histogram: 1 0 0 0 0 0 0 0 0 0
Nghost:           3239 ave        3239 max        3239 min
Histogram: 1 0 0 0 0 0 0 0 0 0
Neighs:          57787 ave       57787 max       57787 min
Histogram: 1 0 0 0 0 0 0 0 0 0

Total # of neighbors = 57787
Ave neighs/atom = 84.114993
Neighbor list builds = 0
Dangerous builds = 0
run 0
WARNING: No fixes with time integration, atoms won't move (src/verlet.cpp:60)
Per MPI rank memory allocation (min/avg/max) = 11.22 | 11.22 | 11.22 Mbytes
   Step          Temp          E_pair         E_mol          TotEng         Press     
         0   2.3196587e-19 -5656.8657      0             -5656.8657      6836.4165    
Loop time of 3.33e-07 on 1 procs for 0 steps with 687 atoms

900.9% CPU use with 1 MPI tasks x 1 OpenMP threads

MPI task timing breakdown:
Section |  min time  |  avg time  |  max time  |%varavg| %total
---------------------------------------------------------------
Pair    | 0          | 0          | 0          |   0.0 |  0.00
Neigh   | 0          | 0          | 0          |   0.0 |  0.00
Comm    | 0          | 0          | 0          |   0.0 |  0.00
Output  | 0          | 0          | 0          |   0.0 |  0.00
Modify  | 0          | 0          | 0          |   0.0 |  0.00
Other   |            | 3.33e-07   |            |       |100.00

Nlocal:            687 ave         687 max         687 min
Histogram: 1 0 0 0 0 0 0 0 0 0
Nghost:           3239 ave        3239 max        3239 min
Histogram: 1 0 0 0 0 0 0 0 0 0
Neighs:          57787 ave       57787 max       57787 min
Histogram: 1 0 0 0 0 0 0 0 0 0

Total # of neighbors = 57787
Ave neighs/atom = 84.114993
Neighbor list builds = 0
Dangerous builds = 0
compute __pafipath all property/atom d_ux d_uy d_uz d_nx d_ny d_nz d_dnx d_dny d_dnz
run 0
WARNING: No fixes with time integration, atoms won't move (src/verlet.cpp:60)
Per MPI rank memory allocation (min/avg/max) = 11.22 | 11.22 | 11.22 Mbytes
   Step          Temp          E_pair         E_mol          TotEng         Press     
         0   2.3196587e-19 -5656.8657      0             -5656.8657      6836.4165    
Loop time of 3.33e-07 on 1 procs for 0 steps with 687 atoms

300.3% CPU use with 1 MPI tasks x 1 OpenMP threads

MPI task timing breakdown:
Section |  min time  |  avg time  |  max time  |%varavg| %total
---------------------------------------------------------------
Pair    | 0          | 0          | 0          |   0.0 |  0.00
Neigh   | 0          | 0          | 0          |   0.0 |  0.00
Comm    | 0          | 0          | 0          |   0.0 |  0.00
Output  | 0          | 0          | 0          |   0.0 |  0.00
Modify  | 0          | 0          | 0          |   0.0 |  0.00
Other   |            | 3.33e-07   |            |       |100.00

Nlocal:            687 ave         687 max         687 min
Histogram: 1 0 0 0 0 0 0 0 0 0
Nghost:           3239 ave        3239 max        3239 min
Histogram: 1 0 0 0 0 0 0 0 0 0
Neighs:          57787 ave       57787 max       57787 min
Histogram: 1 0 0 0 0 0 0 0 0 0

Total # of neighbors = 57787
Ave neighs/atom = 84.114993
Neighbor list builds = 0
Dangerous builds = 0
variable l1 equal 1.0-0.000000
variable l2 equal 0.0+0.000000
run 0
WARNING: No fixes with time integration, atoms won't move (src/verlet.cpp:60)
Per MPI rank memory allocation (min/avg/max) = 11.22 | 11.22 | 11.22 Mbytes
   Step          Temp          E_pair         E_mol          TotEng         Press     
         0   2.3196587e-19 -5656.8657      0             -5656.8657      6836.4165    
Loop time of 3.33e-07 on 1 procs for 0 steps with 687 atoms

1201.2% CPU use with 1 MPI tasks x 1 OpenMP threads

MPI task timing breakdown:
Section |  min time  |  avg time  |  max time  |%varavg| %total
---------------------------------------------------------------
Pair    | 0          | 0          | 0          |   0.0 |  0.00
Neigh   | 0          | 0          | 0          |   0.0 |  0.00
Comm    | 0          | 0          | 0          |   0.0 |  0.00
Output  | 0          | 0          | 0          |   0.0 |  0.00
Modify  | 0          | 0          | 0          |   0.0 |  0.00
Other   |            | 3.33e-07   |            |       |100.00

Nlocal:            687 ave         687 max         687 min
Histogram: 1 0 0 0 0 0 0 0 0 0
Nghost:           3239 ave        3239 max        3239 min
Histogram: 1 0 0 0 0 0 0 0 0 0
Neighs:          57787 ave       57787 max       57787 min
Histogram: 1 0 0 0 0 0 0 0 0 0

Total # of neighbors = 57787
Ave neighs/atom = 84.114993
Neighbor list builds = 0
Dangerous builds = 0
fix escale1 all adapt 1 pair eam/fs:1 scale * * v_l1
fix escale2 all adapt 1 pair eam/fs:2 scale * * v_l2
run 0
WARNING: No fixes with time integration, atoms won't move (src/verlet.cpp:60)
Per MPI rank memory allocation (min/avg/max) = 11.22 | 11.22 | 11.22 Mbytes
   Step          Temp          E_pair         E_mol          TotEng         Press     
         0   2.3196587e-19 -2828.3785      0             -2828.3785      3828.4068    
Loop time of 3.33e-07 on 1 procs for 0 steps with 687 atoms

1201.2% CPU use with 1 MPI tasks x 1 OpenMP threads

MPI task timing breakdown:
Section |  min time  |  avg time  |  max time  |%varavg| %total
---------------------------------------------------------------
Pair    | 0          | 0          | 0          |   0.0 |  0.00
Neigh   | 0          | 0          | 0          |   0.0 |  0.00
Comm    | 0          | 0          | 0          |   0.0 |  0.00
Output  | 0          | 0          | 0          |   0.0 |  0.00
Modify  | 0          | 0          | 0          |   0.0 |  0.00
Other   |            | 3.33e-07   |            |       |100.00

Nlocal:            687 ave         687 max         687 min
Histogram: 1 0 0 0 0 0 0 0 0 0
Nghost:           3239 ave        3239 max        3239 min
Histogram: 1 0 0 0 0 0 0 0 0 0
Neighs:          57787 ave       57787 max       57787 min
Histogram: 1 0 0 0 0 0 0 0 0 0

Total # of neighbors = 57787
Ave neighs/atom = 84.114993
Neighbor list builds = 0
Dangerous builds = 0
compute V_1 all pair eam/fs 1
compute V_2 all pair eam/fs 2
variable V_1 equal (c_V_1/(0.000001+v_l1))
variable V_2 equal (c_V_2/(0.000001+v_l2))
variable dV equal v_V_2-v_V_1
run 0
WARNING: No fixes with time integration, atoms won't move (src/verlet.cpp:60)
Per MPI rank memory allocation (min/avg/max) = 11.22 | 11.22 | 11.22 Mbytes
   Step          Temp          E_pair         E_mol          TotEng         Press     
         0   2.3196587e-19 -2828.3785      0             -2828.3785      3828.4068    
Loop time of 3.33e-07 on 1 procs for 0 steps with 687 atoms

0.0% CPU use with 1 MPI tasks x 1 OpenMP threads

MPI task timing breakdown:
Section |  min time  |  avg time  |  max time  |%varavg| %total
---------------------------------------------------------------
Pair    | 0          | 0          | 0          |   0.0 |  0.00
Neigh   | 0          | 0          | 0          |   0.0 |  0.00
Comm    | 0          | 0          | 0          |   0.0 |  0.00
Output  | 0          | 0          | 0          |   0.0 |  0.00
Modify  | 0          | 0          | 0          |   0.0 |  0.00
Other   |            | 3.33e-07   |            |       |100.00

Nlocal:            687 ave         687 max         687 min
Histogram: 1 0 0 0 0 0 0 0 0 0
Nghost:           3239 ave        3239 max        3239 min
Histogram: 1 0 0 0 0 0 0 0 0 0
Neighs:          57787 ave       57787 max       57787 min
Histogram: 1 0 0 0 0 0 0 0 0 0

Total # of neighbors = 57787
Ave neighs/atom = 84.114993
Neighbor list builds = 0
Dangerous builds = 0
change_box all x scale 1.000000 y scale 1.000000 z scale 1.000000
Changing box ...
  orthogonal box = (0 0 0) to (19.987184 19.987184 19.987184)
  orthogonal box = (0 0 0) to (19.987184 19.987184 19.987184)
  orthogonal box = (0 0 0) to (19.987184 19.987184 19.987184)
run 0
WARNING: No fixes with time integration, atoms won't move (src/verlet.cpp:60)
Per MPI rank memory allocation (min/avg/max) = 11.22 | 11.22 | 11.22 Mbytes
   Step          Temp          E_pair         E_mol          TotEng         Press     
         0   2.3196587e-19 -2828.3785      0             -2828.3785      3828.4068    
Loop time of 3.34e-07 on 1 procs for 0 steps with 687 atoms

299.4% CPU use with 1 MPI tasks x 1 OpenMP threads

MPI task timing breakdown:
Section |  min time  |  avg time  |  max time  |%varavg| %total
---------------------------------------------------------------
Pair    | 0          | 0          | 0          |   0.0 |  0.00
Neigh   | 0          | 0          | 0          |   0.0 |  0.00
Comm    | 0          | 0          | 0          |   0.0 |  0.00
Output  | 0          | 0          | 0          |   0.0 |  0.00
Modify  | 0          | 0          | 0          |   0.0 |  0.00
Other   |            | 3.34e-07   |            |       |100.00

Nlocal:            687 ave         687 max         687 min
Histogram: 1 0 0 0 0 0 0 0 0 0
Nghost:           3239 ave        3239 max        3239 min
Histogram: 1 0 0 0 0 0 0 0 0 0
Neighs:          57787 ave       57787 max       57787 min
Histogram: 1 0 0 0 0 0 0 0 0 0

Total # of neighbors = 57787
Ave neighs/atom = 84.114993
Neighbor list builds = 0
Dangerous builds = 0
run 0
WARNING: No fixes with time integration, atoms won't move (src/verlet.cpp:60)
Per MPI rank memory allocation (min/avg/max) = 11.22 | 11.22 | 11.22 Mbytes
   Step          Temp          E_pair         E_mol          TotEng         Press     
         0   2.3196587e-19 -2828.3785      0             -2828.3785      3828.4068    
Loop time of 3.33e-07 on 1 procs for 0 steps with 687 atoms

900.9% CPU use with 1 MPI tasks x 1 OpenMP threads

MPI task timing breakdown:
Section |  min time  |  avg time  |  max time  |%varavg| %total
---------------------------------------------------------------
Pair    | 0          | 0          | 0          |   0.0 |  0.00
Neigh   | 0          | 0          | 0          |   0.0 |  0.00
Comm    | 0          | 0          | 0          |   0.0 |  0.00
Output  | 0          | 0          | 0          |   0.0 |  0.00
Modify  | 0          | 0          | 0          |   0.0 |  0.00
Other   |            | 3.33e-07   |            |       |100.00

Nlocal:            687 ave         687 max         687 min
Histogram: 1 0 0 0 0 0 0 0 0 0
Nghost:           3239 ave        3239 max        3239 min
Histogram: 1 0 0 0 0 0 0 0 0 0
Neighs:          57787 ave       57787 max       57787 min
Histogram: 1 0 0 0 0 0 0 0 0 0

Total # of neighbors = 57787
Ave neighs/atom = 84.114993
Neighbor list builds = 0
Dangerous builds = 0
fix hp all pafi __pafipath 200.000000 0.05 137 overdamped 1 com 1
fix pafi compute name,style: __pafipath,property/atom
run 0

CITE-CITE-CITE-CITE-CITE-CITE-CITE-CITE-CITE-CITE-CITE-CITE-CITE

Your simulation uses code contributions which should be cited:

- citation for fix pafi: doi:10.1103/PhysRevLett.120.135503

@article{SwinburneMarinica2018,
author={T. D. Swinburne and M. C. Marinica},
title={Unsupervised Calculation of Free Energy Barriers in Large
   Crystalline Systems},
journal={Physical Review Letters},
volume={120},
number={13},
pages={135503},
year={2018},
publisher={APS}
}
Recommended to be coupled with PAFI++ code:
https://github.com/tomswinburne/pafi
CITE-CITE-CITE-CITE-CITE-CITE-CITE-CITE-CITE-CITE-CITE-CITE-CITE

Per MPI rank memory allocation (min/avg/max) = 12.72 | 12.72 | 12.72 Mbytes
   Step          Temp          E_pair         E_mol          TotEng         Press     
         0   2.1414174e-19 -2828.3785      0             -2828.3785      3828.4068    
Loop time of 3.34e-07 on 1 procs for 0 steps with 687 atoms

898.2% CPU use with 1 MPI tasks x 1 OpenMP threads

MPI task timing breakdown:
Section |  min time  |  avg time  |  max time  |%varavg| %total
---------------------------------------------------------------
Pair    | 0          | 0          | 0          |   0.0 |  0.00
Neigh   | 0          | 0          | 0          |   0.0 |  0.00
Comm    | 0          | 0          | 0          |   0.0 |  0.00
Output  | 0          | 0          | 0          |   0.0 |  0.00
Modify  | 0          | 0          | 0          |   0.0 |  0.00
Other   |            | 3.34e-07   |            |       |100.00

Nlocal:            687 ave         687 max         687 min
Histogram: 1 0 0 0 0 0 0 0 0 0
Nghost:           3239 ave        3239 max        3239 min
Histogram: 1 0 0 0 0 0 0 0 0 0
Neighs:          57787 ave       57787 max       57787 min
Histogram: 1 0 0 0 0 0 0 0 0 0

Total # of neighbors = 57787
Ave neighs/atom = 84.114993
Neighbor list builds = 0
Dangerous builds = 0
min_style fire
minimize 0 0.001 10000 10000
Switching to 'neigh_modify every 1 delay 0 check yes' setting during minimization
  Parameters for fire:
    dmax  delaystep dtgrow dtshrink alpha0 alphashrink tmax tmin   integrator   halfstepback   abcfire  
     0.1     20      1.1     0.5     0.25     0.99      10  0.02 eulerimplicit      yes          no     
Per MPI rank memory allocation (min/avg/max) = 12.72 | 12.72 | 12.72 Mbytes
   Step          Temp          E_pair         E_mol          TotEng         Press     
         0   0             -2828.3785      0             -2828.3785      3828.4068    
         1   2.5153939e-21 -2828.3785      0             -2828.3785      3828.4068    
Loop time of 0.0048565 on 1 procs for 1 steps with 687 atoms

100.0% CPU use with 1 MPI tasks x 1 OpenMP threads

Minimization stats:
  Stopping criterion = force tolerance
  Energy initial, next-to-last, final = 
     -2828.37851624654  -2828.37851624654  -2828.37851624654
  Force two-norm initial, final = 1.6069165e-09 1.6066963e-09
  Force max component initial, final = 1.8602159e-10 1.8596093e-10
  Final line search alpha, max atom move = 0 0
  Iterations, force evaluations = 1 2

MPI task timing breakdown:
Section |  min time  |  avg time  |  max time  |%varavg| %total
---------------------------------------------------------------
Pair    | 0.0047665  | 0.0047665  | 0.0047665  |   0.0 | 98.15
Neigh   | 0          | 0          | 0          |   0.0 |  0.00
Comm    | 2.3207e-05 | 2.3207e-05 | 2.3207e-05 |   0.0 |  0.48
Output  | 0          | 0          | 0          |   0.0 |  0.00
Modify  | 4.8291e-05 | 4.8291e-05 | 4.8291e-05 |   0.0 |  0.99
Other   |            | 1.846e-05  |            |       |  0.38

Nlocal:            687 ave         687 max         687 min
Histogram: 1 0 0 0 0 0 0 0 0 0
Nghost:           3239 ave        3239 max        3239 min
Histogram: 1 0 0 0 0 0 0 0 0 0
Neighs:          57787 ave       57787 max       57787 min
Histogram: 1 0 0 0 0 0 0 0 0 0

Total # of neighbors = 57787
Ave neighs/atom = 84.114993
Neighbor list builds = 0
Dangerous builds = 0
run 0
Per MPI rank memory allocation (min/avg/max) = 12.72 | 12.72 | 12.72 Mbytes
   Step          Temp          E_pair         E_mol          TotEng         Press     
         1   2.5153939e-21 -2828.3785      0             -2828.3785      3828.4068    
Loop time of 3.34e-07 on 1 procs for 0 steps with 687 atoms

299.4% CPU use with 1 MPI tasks x 1 OpenMP threads

MPI task timing breakdown:
Section |  min time  |  avg time  |  max time  |%varavg| %total
---------------------------------------------------------------
Pair    | 0          | 0          | 0          |   0.0 |  0.00
Neigh   | 0          | 0          | 0          |   0.0 |  0.00
Comm    | 0          | 0          | 0          |   0.0 |  0.00
Output  | 0          | 0          | 0          |   0.0 |  0.00
Modify  | 0          | 0          | 0          |   0.0 |  0.00
Other   |            | 3.34e-07   |            |       |100.00

Nlocal:            687 ave         687 max         687 min
Histogram: 1 0 0 0 0 0 0 0 0 0
Nghost:           3239 ave        3239 max        3239 min
Histogram: 1 0 0 0 0 0 0 0 0 0
Neighs:          57787 ave       57787 max       57787 min
Histogram: 1 0 0 0 0 0 0 0 0 0

Total # of neighbors = 57787
Ave neighs/atom = 84.114993
Neighbor list builds = 0
Dangerous builds = 0
compute pe all pe
variable pe equal pe
run 0
Per MPI rank memory allocation (min/avg/max) = 12.72 | 12.72 | 12.72 Mbytes
   Step          Temp          E_pair         E_mol          TotEng         Press     
         1   2.5153939e-21 -2828.3785      0             -2828.3785      3828.4068    
Loop time of 2.91e-07 on 1 procs for 0 steps with 687 atoms

343.6% CPU use with 1 MPI tasks x 1 OpenMP threads

MPI task timing breakdown:
Section |  min time  |  avg time  |  max time  |%varavg| %total
---------------------------------------------------------------
Pair    | 0          | 0          | 0          |   0.0 |  0.00
Neigh   | 0          | 0          | 0          |   0.0 |  0.00
Comm    | 0          | 0          | 0          |   0.0 |  0.00
Output  | 0          | 0          | 0          |   0.0 |  0.00
Modify  | 0          | 0          | 0          |   0.0 |  0.00
Other   |            | 2.91e-07   |            |       |100.00

Nlocal:            687 ave         687 max         687 min
Histogram: 1 0 0 0 0 0 0 0 0 0
Nghost:           3239 ave        3239 max        3239 min
Histogram: 1 0 0 0 0 0 0 0 0 0
Neighs:          57787 ave       57787 max       57787 min
Histogram: 1 0 0 0 0 0 0 0 0 0

Total # of neighbors = 57787
Ave neighs/atom = 84.114993
Neighbor list builds = 0
Dangerous builds = 0
reset_timestep 0
fix ae all ave/time 1 50 100 c_pe
run 100
Per MPI rank memory allocation (min/avg/max) = 12.72 | 12.72 | 12.72 Mbytes
   Step          Temp          E_pair         E_mol          TotEng         Press     
         0   2.5153939e-21 -2828.3785      0             -2828.3785      3828.4068    
       100   0             -2810.0233      0             -2810.0233      8168.0227    
Loop time of 0.175115 on 1 procs for 100 steps with 687 atoms

Performance: 49.339 ns/day, 0.486 hours/ns, 571.053 timesteps/s, 392.313 katom-step/s
99.6% CPU use with 1 MPI tasks x 1 OpenMP threads

MPI task timing breakdown:
Section |  min time  |  avg time  |  max time  |%varavg| %total
---------------------------------------------------------------
Pair    | 0.16993    | 0.16993    | 0.16993    |   0.0 | 97.04
Neigh   | 0          | 0          | 0          |   0.0 |  0.00
Comm    | 0.00077626 | 0.00077626 | 0.00077626 |   0.0 |  0.44
Output  | 1.3167e-05 | 1.3167e-05 | 1.3167e-05 |   0.0 |  0.01
Modify  | 0.0042541  | 0.0042541  | 0.0042541  |   0.0 |  2.43
Other   |            | 0.000142   |            |       |  0.08

Nlocal:            687 ave         687 max         687 min
Histogram: 1 0 0 0 0 0 0 0 0 0
Nghost:           3239 ave        3239 max        3239 min
Histogram: 1 0 0 0 0 0 0 0 0 0
Neighs:          57787 ave       57787 max       57787 min
Histogram: 1 0 0 0 0 0 0 0 0 0

Total # of neighbors = 57787
Ave neighs/atom = 84.114993
Neighbor list builds = 0
Dangerous builds = 0
unfix ae
run 0
Per MPI rank memory allocation (min/avg/max) = 12.72 | 12.72 | 12.72 Mbytes
   Step          Temp          E_pair         E_mol          TotEng         Press     
       100   0             -2810.0233      0             -2810.0233      8168.0227    
Loop time of 3.34e-07 on 1 procs for 0 steps with 687 atoms

898.2% CPU use with 1 MPI tasks x 1 OpenMP threads

MPI task timing breakdown:
Section |  min time  |  avg time  |  max time  |%varavg| %total
---------------------------------------------------------------
Pair    | 0          | 0          | 0          |   0.0 |  0.00
Neigh   | 0          | 0          | 0          |   0.0 |  0.00
Comm    | 0          | 0          | 0          |   0.0 |  0.00
Output  | 0          | 0          | 0          |   0.0 |  0.00
Modify  | 0          | 0          | 0          |   0.0 |  0.00
Other   |            | 3.34e-07   |            |       |100.00

Nlocal:            687 ave         687 max         687 min
Histogram: 1 0 0 0 0 0 0 0 0 0
Nghost:           3239 ave        3239 max        3239 min
Histogram: 1 0 0 0 0 0 0 0 0 0
Neighs:          57796 ave       57796 max       57796 min
Histogram: 1 0 0 0 0 0 0 0 0 0

Total # of neighbors = 57796
Ave neighs/atom = 84.128093
Neighbor list builds = 0
Dangerous builds = 0
reset_timestep 0
fix ae all ave/time 1 100 100 c_pe
fix af all ave/time 1 100 100 f_hp[1] f_hp[2] f_hp[3] f_hp[4]
fix dV all ave/time 1 100 100 v_dV
run 0
Per MPI rank memory allocation (min/avg/max) = 12.72 | 12.72 | 12.72 Mbytes
   Step          Temp          E_pair         E_mol          TotEng         Press     
         0   0             -2810.0233      0             -2810.0233      8168.0227    
Loop time of 3.34e-07 on 1 procs for 0 steps with 687 atoms

898.2% CPU use with 1 MPI tasks x 1 OpenMP threads

MPI task timing breakdown:
Section |  min time  |  avg time  |  max time  |%varavg| %total
---------------------------------------------------------------
Pair    | 0          | 0          | 0          |   0.0 |  0.00
Neigh   | 0          | 0          | 0          |   0.0 |  0.00
Comm    | 0          | 0          | 0          |   0.0 |  0.00
Output  | 0          | 0          | 0          |   0.0 |  0.00
Modify  | 0          | 0          | 0          |   0.0 |  0.00
Other   |            | 3.34e-07   |            |       |100.00

Nlocal:            687 ave         687 max         687 min
Histogram: 1 0 0 0 0 0 0 0 0 0
Nghost:           3239 ave        3239 max        3239 min
Histogram: 1 0 0 0 0 0 0 0 0 0
Neighs:          57796 ave       57796 max       57796 min
Histogram: 1 0 0 0 0 0 0 0 0 0

Total # of neighbors = 57796
Ave neighs/atom = 84.128093
Neighbor list builds = 0
Dangerous builds = 0
run 100
Per MPI rank memory allocation (min/avg/max) = 12.72 | 12.72 | 12.72 Mbytes
   Step          Temp          E_pair         E_mol          TotEng         Press     
         0   0             -2810.0233      0             -2810.0233      8168.0227    
       100   0             -2809.7044      0             -2809.7044      7881.1828    
Loop time of 0.193161 on 1 procs for 100 steps with 687 atoms

Performance: 44.729 ns/day, 0.537 hours/ns, 517.702 timesteps/s, 355.661 katom-step/s
99.9% CPU use with 1 MPI tasks x 1 OpenMP threads

MPI task timing breakdown:
Section |  min time  |  avg time  |  max time  |%varavg| %total
---------------------------------------------------------------
Pair    | 0.18779    | 0.18779    | 0.18779    |   0.0 | 97.22
Neigh   | 0          | 0          | 0          |   0.0 |  0.00
Comm    | 0.00074992 | 0.00074992 | 0.00074992 |   0.0 |  0.39
Output  | 3.792e-06  | 3.792e-06  | 3.792e-06  |   0.0 |  0.00
Modify  | 0.0044856  | 0.0044856  | 0.0044856  |   0.0 |  2.32
Other   |            | 0.0001323  |            |       |  0.07

Nlocal:            687 ave         687 max         687 min
Histogram: 1 0 0 0 0 0 0 0 0 0
Nghost:           3239 ave        3239 max        3239 min
Histogram: 1 0 0 0 0 0 0 0 0 0
Neighs:          57796 ave       57796 max       57796 min
Histogram: 1 0 0 0 0 0 0 0 0 0

Total # of neighbors = 57796
Ave neighs/atom = 84.128093
Neighbor list builds = 0
Dangerous builds = 0
unfix dV
run 0
Per MPI rank memory allocation (min/avg/max) = 12.72 | 12.72 | 12.72 Mbytes
   Step          Temp          E_pair         E_mol          TotEng         Press     
       100   0             -2809.7044      0             -2809.7044      7881.1828    
Loop time of 3.33e-07 on 1 procs for 0 steps with 687 atoms

1201.2% CPU use with 1 MPI tasks x 1 OpenMP threads

MPI task timing breakdown:
Section |  min time  |  avg time  |  max time  |%varavg| %total
---------------------------------------------------------------
Pair    | 0          | 0          | 0          |   0.0 |  0.00
Neigh   | 0          | 0          | 0          |   0.0 |  0.00
Comm    | 0          | 0          | 0          |   0.0 |  0.00
Output  | 0          | 0          | 0          |   0.0 |  0.00
Modify  | 0          | 0          | 0          |   0.0 |  0.00
Other   |            | 3.33e-07   |            |       |100.00

Nlocal:            687 ave         687 max         687 min
Histogram: 1 0 0 0 0 0 0 0 0 0
Nghost:           3239 ave        3239 max        3239 min
Histogram: 1 0 0 0 0 0 0 0 0 0
Neighs:          57787 ave       57787 max       57787 min
Histogram: 1 0 0 0 0 0 0 0 0 0

Total # of neighbors = 57787
Ave neighs/atom = 84.114993
Neighbor list builds = 0
Dangerous builds = 0
min_style fire
minimize 0 0.001 10000 10000
Switching to 'neigh_modify every 1 delay 0 check yes' setting during minimization
  Parameters for fire:
    dmax  delaystep dtgrow dtshrink alpha0 alphashrink tmax tmin   integrator   halfstepback   abcfire  
     0.1     20      1.1     0.5     0.25     0.99      10  0.02 eulerimplicit      yes          no     
Per MPI rank memory allocation (min/avg/max) = 12.72 | 12.72 | 12.72 Mbytes
   Step          Temp          E_pair         E_mol          TotEng         Press     
       100   0             -2809.7044      0             -2809.7044      7881.1828    
       268   3.2046054e-05 -2828.3785      0             -2828.3785      3828.3843    
Loop time of 0.315759 on 1 procs for 168 steps with 687 atoms

99.9% CPU use with 1 MPI tasks x 1 OpenMP threads

Minimization stats:
  Stopping criterion = force tolerance
  Energy initial, next-to-last, final = 
     -2809.70441973892  -2828.37851544606  -2828.37851572213
  Force two-norm initial, final = 19.464219 0.00082879697
  Force max component initial, final = 1.9225147 5.6083142e-05
  Final line search alpha, max atom move = 0 0
  Iterations, force evaluations = 168 174

MPI task timing breakdown:
Section |  min time  |  avg time  |  max time  |%varavg| %total
---------------------------------------------------------------
Pair    | 0.3099     | 0.3099     | 0.3099     |   0.0 | 98.15
Neigh   | 0          | 0          | 0          |   0.0 |  0.00
Comm    | 0.0013182  | 0.0013182  | 0.0013182  |   0.0 |  0.42
Output  | 0          | 0          | 0          |   0.0 |  0.00
Modify  | 0.0028913  | 0.0028913  | 0.0028913  |   0.0 |  0.92
Other   |            | 0.001645   |            |       |  0.52

Nlocal:            687 ave         687 max         687 min
Histogram: 1 0 0 0 0 0 0 0 0 0
Nghost:           3239 ave        3239 max        3239 min
Histogram: 1 0 0 0 0 0 0 0 0 0
Neighs:          57787 ave       57787 max       57787 min
Histogram: 1 0 0 0 0 0 0 0 0 0

Total # of neighbors = 57787
Ave neighs/atom = 84.114993
Neighbor list builds = 0
Dangerous builds = 0
unfix ae
unfix af
unfix hp
variable dV delete
uncompute V_1
uncompute V_2
unfix escale1
unfix escale2
run 0
WARNING: No fixes with time integration, atoms won't move (src/verlet.cpp:60)
Per MPI rank memory allocation (min/avg/max) = 12.34 | 12.34 | 12.34 Mbytes
   Step          Temp          E_pair         E_mol          TotEng         Press     
       268   3.2046054e-05 -2828.3785      0             -2828.3785      3828.3843    
Loop time of 3.33e-07 on 1 procs for 0 steps with 687 atoms

600.6% CPU use with 1 MPI tasks x 1 OpenMP threads

MPI task timing breakdown:
Section |  min time  |  avg time  |  max time  |%varavg| %total
---------------------------------------------------------------
Pair    | 0          | 0          | 0          |   0.0 |  0.00
Neigh   | 0          | 0          | 0          |   0.0 |  0.00
Comm    | 0          | 0          | 0          |   0.0 |  0.00
Output  | 0          | 0          | 0          |   0.0 |  0.00
Modify  | 0          | 0          | 0          |   0.0 |  0.00
Other   |            | 3.33e-07   |            |       |100.00

Nlocal:            687 ave         687 max         687 min
Histogram: 1 0 0 0 0 0 0 0 0 0
Nghost:           3239 ave        3239 max        3239 min
Histogram: 1 0 0 0 0 0 0 0 0 0
Neighs:          57787 ave       57787 max       57787 min
Histogram: 1 0 0 0 0 0 0 0 0 0

Total # of neighbors = 57787
Ave neighs/atom = 84.114993
Neighbor list builds = 0
Dangerous builds = 0
change_box all x scale 1.000000 y scale 1.000000 z scale 1.000000
Changing box ...
  orthogonal box = (0 0 0) to (19.987184 19.987184 19.987184)
  orthogonal box = (0 0 0) to (19.987184 19.987184 19.987184)
  orthogonal box = (0 0 0) to (19.987184 19.987184 19.987184)
run 0
WARNING: No fixes with time integration, atoms won't move (src/verlet.cpp:60)
Per MPI rank memory allocation (min/avg/max) = 12.34 | 12.34 | 12.34 Mbytes
   Step          Temp          E_pair         E_mol          TotEng         Press     
       268   3.2046054e-05 -2828.3785      0             -2828.3785      3828.3843    
Loop time of 3.33e-07 on 1 procs for 0 steps with 687 atoms

0.0% CPU use with 1 MPI tasks x 1 OpenMP threads

MPI task timing breakdown:
Section |  min time  |  avg time  |  max time  |%varavg| %total
---------------------------------------------------------------
Pair    | 0          | 0          | 0          |   0.0 |  0.00
Neigh   | 0          | 0          | 0          |   0.0 |  0.00
Comm    | 0          | 0          | 0          |   0.0 |  0.00
Output  | 0          | 0          | 0          |   0.0 |  0.00
Modify  | 0          | 0          | 0          |   0.0 |  0.00
Other   |            | 3.33e-07   |            |       |100.00

Nlocal:            687 ave         687 max         687 min
Histogram: 1 0 0 0 0 0 0 0 0 0
Nghost:           3239 ave        3239 max        3239 min
Histogram: 1 0 0 0 0 0 0 0 0 0
Neighs:          57787 ave       57787 max       57787 min
Histogram: 1 0 0 0 0 0 0 0 0 0

Total # of neighbors = 57787
Ave neighs/atom = 84.114993
Neighbor list builds = 0
Dangerous builds = 0
run 0
WARNING: No fixes with time integration, atoms won't move (src/verlet.cpp:60)
Per MPI rank memory allocation (min/avg/max) = 12.34 | 12.34 | 12.34 Mbytes
   Step          Temp          E_pair         E_mol          TotEng         Press     
       268   3.2046054e-05 -2828.3785      0             -2828.3785      3828.4072    
Loop time of 2.92e-07 on 1 procs for 0 steps with 687 atoms

684.9% CPU use with 1 MPI tasks x 1 OpenMP threads

MPI task timing breakdown:
Section |  min time  |  avg time  |  max time  |%varavg| %total
---------------------------------------------------------------
Pair    | 0          | 0          | 0          |   0.0 |  0.00
Neigh   | 0          | 0          | 0          |   0.0 |  0.00
Comm    | 0          | 0          | 0          |   0.0 |  0.00
Output  | 0          | 0          | 0          |   0.0 |  0.00
Modify  | 0          | 0          | 0          |   0.0 |  0.00
Other   |            | 2.92e-07   |            |       |100.00

Nlocal:            687 ave         687 max         687 min
Histogram: 1 0 0 0 0 0 0 0 0 0
Nghost:           3239 ave        3239 max        3239 min
Histogram: 1 0 0 0 0 0 0 0 0 0
Neighs:          57787 ave       57787 max       57787 min
Histogram: 1 0 0 0 0 0 0 0 0 0

Total # of neighbors = 57787
Ave neighs/atom = 84.114993
Neighbor list builds = 0
Dangerous builds = 0
change_box all x scale 1.000000 y scale 1.000000 z scale 1.000000
Changing box ...
  orthogonal box = (0 0 0) to (19.987184 19.987184 19.987184)
  orthogonal box = (0 0 0) to (19.987184 19.987184 19.987184)
  orthogonal box = (0 0 0) to (19.987184 19.987184 19.987184)
run 0
WARNING: No fixes with time integration, atoms won't move (src/verlet.cpp:60)
Per MPI rank memory allocation (min/avg/max) = 12.34 | 12.34 | 12.34 Mbytes
   Step          Temp          E_pair         E_mol          TotEng         Press     
       268   3.2046054e-05 -2828.3785      0             -2828.3785      3828.4072    
Loop time of 3.33e-07 on 1 procs for 0 steps with 687 atoms

300.3% CPU use with 1 MPI tasks x 1 OpenMP threads

MPI task timing breakdown:
Section |  min time  |  avg time  |  max time  |%varavg| %total
---------------------------------------------------------------
Pair    | 0          | 0          | 0          |   0.0 |  0.00
Neigh   | 0          | 0          | 0          |   0.0 |  0.00
Comm    | 0          | 0          | 0          |   0.0 |  0.00
Output  | 0          | 0          | 0          |   0.0 |  0.00
Modify  | 0          | 0          | 0          |   0.0 |  0.00
Other   |            | 3.33e-07   |            |       |100.00

Nlocal:            687 ave         687 max         687 min
Histogram: 1 0 0 0 0 0 0 0 0 0
Nghost:           3239 ave        3239 max        3239 min
Histogram: 1 0 0 0 0 0 0 0 0 0
Neighs:          57787 ave       57787 max       57787 min
Histogram: 1 0 0 0 0 0 0 0 0 0

Total # of neighbors = 57787
Ave neighs/atom = 84.114993
Neighbor list builds = 0
Dangerous builds = 0
run 0
WARNING: No fixes with time integration, atoms won't move (src/verlet.cpp:60)
Per MPI rank memory allocation (min/avg/max) = 12.34 | 12.34 | 12.34 Mbytes
   Step          Temp          E_pair         E_mol          TotEng         Press     
       268   3.2046054e-05 -2828.3785      0             -2828.3785      3828.4072    
Loop time of 3.33e-07 on 1 procs for 0 steps with 687 atoms

900.9% CPU use with 1 MPI tasks x 1 OpenMP threads

MPI task timing breakdown:
Section |  min time  |  avg time  |  max time  |%varavg| %total
---------------------------------------------------------------
Pair    | 0          | 0          | 0          |   0.0 |  0.00
Neigh   | 0          | 0          | 0          |   0.0 |  0.00
Comm    | 0          | 0          | 0          |   0.0 |  0.00
Output  | 0          | 0          | 0          |   0.0 |  0.00
Modify  | 0          | 0          | 0          |   0.0 |  0.00
Other   |            | 3.33e-07   |            |       |100.00

Nlocal:            687 ave         687 max         687 min
Histogram: 1 0 0 0 0 0 0 0 0 0
Nghost:           3239 ave        3239 max        3239 min
Histogram: 1 0 0 0 0 0 0 0 0 0
Neighs:          57787 ave       57787 max       57787 min
Histogram: 1 0 0 0 0 0 0 0 0 0

Total # of neighbors = 57787
Ave neighs/atom = 84.114993
Neighbor list builds = 0
Dangerous builds = 0
variable l1 equal 1.0-0.200000
variable l2 equal 0.0+0.200000
run 0
WARNING: No fixes with time integration, atoms won't move (src/verlet.cpp:60)
Per MPI rank memory allocation (min/avg/max) = 12.34 | 12.34 | 12.34 Mbytes
   Step          Temp          E_pair         E_mol          TotEng         Press     
       268   3.2046054e-05 -2828.3785      0             -2828.3785      3828.4072    
Loop time of 2.91e-07 on 1 procs for 0 steps with 687 atoms

343.6% CPU use with 1 MPI tasks x 1 OpenMP threads

MPI task timing breakdown:
Section |  min time  |  avg time  |  max time  |%varavg| %total
---------------------------------------------------------------
Pair    | 0          | 0          | 0          |   0.0 |  0.00
Neigh   | 0          | 0          | 0          |   0.0 |  0.00
Comm    | 0          | 0          | 0          |   0.0 |  0.00
Output  | 0          | 0          | 0          |   0.0 |  0.00
Modify  | 0          | 0          | 0          |   0.0 |  0.00
Other   |            | 2.91e-07   |            |       |100.00

Nlocal:            687 ave         687 max         687 min
Histogram: 1 0 0 0 0 0 0 0 0 0
Nghost:           3239 ave        3239 max        3239 min
Histogram: 1 0 0 0 0 0 0 0 0 0
Neighs:          57787 ave       57787 max       57787 min
Histogram: 1 0 0 0 0 0 0 0 0 0

Total # of neighbors = 57787
Ave neighs/atom = 84.114993
Neighbor list builds = 0
Dangerous builds = 0
fix escale1 all adapt 1 pair eam/fs:1 scale * * v_l1
fix escale2 all adapt 1 pair eam/fs:2 scale * * v_l2
run 0
WARNING: No fixes with time integration, atoms won't move (src/verlet.cpp:60)
Per MPI rank memory allocation (min/avg/max) = 12.34 | 12.34 | 12.34 Mbytes
   Step          Temp          E_pair         E_mol          TotEng         Press     
       268   3.2046054e-05 -2828.4003      0             -2828.4003      3664.3278    
Loop time of 3.33e-07 on 1 procs for 0 steps with 687 atoms

1201.2% CPU use with 1 MPI tasks x 1 OpenMP threads

MPI task timing breakdown:
Section |  min time  |  avg time  |  max time  |%varavg| %total
---------------------------------------------------------------
Pair    | 0          | 0          | 0          |   0.0 |  0.00
Neigh   | 0          | 0          | 0          |   0.0 |  0.00
Comm    | 0          | 0          | 0          |   0.0 |  0.00
Output  | 0          | 0          | 0          |   0.0 |  0.00
Modify  | 0          | 0          | 0          |   0.0 |  0.00
Other   |            | 3.33e-07   |            |       |100.00

Nlocal:            687 ave         687 max         687 min
Histogram: 1 0 0 0 0 0 0 0 0 0
Nghost:           3239 ave        3239 max        3239 min
Histogram: 1 0 0 0 0 0 0 0 0 0
Neighs:          57787 ave       57787 max       57787 min
Histogram: 1 0 0 0 0 0 0 0 0 0

Total # of neighbors = 57787
Ave neighs/atom = 84.114993
Neighbor list builds = 0
Dangerous builds = 0
compute V_1 all pair eam/fs 1
compute V_2 all pair eam/fs 2
variable V_1 equal (c_V_1/(0.000001+v_l1))
variable V_2 equal (c_V_2/(0.000001+v_l2))
variable dV equal v_V_2-v_V_1
run 0
WARNING: No fixes with time integration, atoms won't move (src/verlet.cpp:60)
Per MPI rank memory allocation (min/avg/max) = 12.34 | 12.34 | 12.34 Mbytes
   Step          Temp          E_pair         E_mol          TotEng         Press     
       268   3.2046054e-05 -2828.4003      0             -2828.4003      3664.3278    
Loop time of 3.75e-07 on 1 procs for 0 steps with 687 atoms

0.0% CPU use with 1 MPI tasks x 1 OpenMP threads

MPI task timing breakdown:
Section |  min time  |  avg time  |  max time  |%varavg| %total
---------------------------------------------------------------
Pair    | 0          | 0          | 0          |   0.0 |  0.00
Neigh   | 0          | 0          | 0          |   0.0 |  0.00
Comm    | 0          | 0          | 0          |   0.0 |  0.00
Output  | 0          | 0          | 0          |   0.0 |  0.00
Modify  | 0          | 0          | 0          |   0.0 |  0.00
Other   |            | 3.75e-07   |            |       |100.00

Nlocal:            687 ave         687 max         687 min
Histogram: 1 0 0 0 0 0 0 0 0 0
Nghost:           3239 ave        3239 max        3239 min
Histogram: 1 0 0 0 0 0 0 0 0 0
Neighs:          57787 ave       57787 max       57787 min
Histogram: 1 0 0 0 0 0 0 0 0 0

Total # of neighbors = 57787
Ave neighs/atom = 84.114993
Neighbor list builds = 0
Dangerous builds = 0
change_box all x scale 1.000000 y scale 1.000000 z scale 1.000000
Changing box ...
  orthogonal box = (0 0 0) to (19.987184 19.987184 19.987184)
  orthogonal box = (0 0 0) to (19.987184 19.987184 19.987184)
  orthogonal box = (0 0 0) to (19.987184 19.987184 19.987184)
run 0
WARNING: No fixes with time integration, atoms won't move (src/verlet.cpp:60)
Per MPI rank memory allocation (min/avg/max) = 12.34 | 12.34 | 12.34 Mbytes
   Step          Temp          E_pair         E_mol          TotEng         Press     
       268   3.2046054e-05 -2828.4003      0             -2828.4003      3664.3278    
Loop time of 3.33e-07 on 1 procs for 0 steps with 687 atoms

0.0% CPU use with 1 MPI tasks x 1 OpenMP threads

MPI task timing breakdown:
Section |  min time  |  avg time  |  max time  |%varavg| %total
---------------------------------------------------------------
Pair    | 0          | 0          | 0          |   0.0 |  0.00
Neigh   | 0          | 0          | 0          |   0.0 |  0.00
Comm    | 0          | 0          | 0          |   0.0 |  0.00
Output  | 0          | 0          | 0          |   0.0 |  0.00
Modify  | 0          | 0          | 0          |   0.0 |  0.00
Other   |            | 3.33e-07   |            |       |100.00

Nlocal:            687 ave         687 max         687 min
Histogram: 1 0 0 0 0 0 0 0 0 0
Nghost:           3239 ave        3239 max        3239 min
Histogram: 1 0 0 0 0 0 0 0 0 0
Neighs:          57787 ave       57787 max       57787 min
Histogram: 1 0 0 0 0 0 0 0 0 0

Total # of neighbors = 57787
Ave neighs/atom = 84.114993
Neighbor list builds = 0
Dangerous builds = 0
run 0
WARNING: No fixes with time integration, atoms won't move (src/verlet.cpp:60)
Per MPI rank memory allocation (min/avg/max) = 12.34 | 12.34 | 12.34 Mbytes
   Step          Temp          E_pair         E_mol          TotEng         Press     
       268   3.2046054e-05 -2828.4003      0             -2828.4003      3664.3278    
Loop time of 4.17e-07 on 1 procs for 0 steps with 687 atoms

239.8% CPU use with 1 MPI tasks x 1 OpenMP threads

MPI task timing breakdown:
Section |  min time  |  avg time  |  max time  |%varavg| %total
---------------------------------------------------------------
Pair    | 0          | 0          | 0          |   0.0 |  0.00
Neigh   | 0          | 0          | 0          |   0.0 |  0.00
Comm    | 0          | 0          | 0          |   0.0 |  0.00
Output  | 0          | 0          | 0          |   0.0 |  0.00
Modify  | 0          | 0          | 0          |   0.0 |  0.00
Other   |            | 4.17e-07   |            |       |100.00

Nlocal:            687 ave         687 max         687 min
Histogram: 1 0 0 0 0 0 0 0 0 0
Nghost:           3239 ave        3239 max        3239 min
Histogram: 1 0 0 0 0 0 0 0 0 0
Neighs:          57787 ave       57787 max       57787 min
Histogram: 1 0 0 0 0 0 0 0 0 0

Total # of neighbors = 57787
Ave neighs/atom = 84.114993
Neighbor list builds = 0
Dangerous builds = 0
fix hp all pafi __pafipath 200.000000 0.05 137 overdamped 1 com 1
fix pafi compute name,style: __pafipath,property/atom
run 0
Per MPI rank memory allocation (min/avg/max) = 12.72 | 12.72 | 12.72 Mbytes
   Step          Temp          E_pair         E_mol          TotEng         Press     
       268   3.2046054e-05 -2828.4003      0             -2828.4003      3664.3278    
Loop time of 2.92e-07 on 1 procs for 0 steps with 687 atoms

342.5% CPU use with 1 MPI tasks x 1 OpenMP threads

MPI task timing breakdown:
Section |  min time  |  avg time  |  max time  |%varavg| %total
---------------------------------------------------------------
Pair    | 0          | 0          | 0          |   0.0 |  0.00
Neigh   | 0          | 0          | 0          |   0.0 |  0.00
Comm    | 0          | 0          | 0          |   0.0 |  0.00
Output  | 0          | 0          | 0          |   0.0 |  0.00
Modify  | 0          | 0          | 0          |   0.0 |  0.00
Other   |            | 2.92e-07   |            |       |100.00

Nlocal:            687 ave         687 max         687 min
Histogram: 1 0 0 0 0 0 0 0 0 0
Nghost:           3239 ave        3239 max        3239 min
Histogram: 1 0 0 0 0 0 0 0 0 0
Neighs:          57787 ave       57787 max       57787 min
Histogram: 1 0 0 0 0 0 0 0 0 0

Total # of neighbors = 57787
Ave neighs/atom = 84.114993
Neighbor list builds = 0
Dangerous builds = 0
min_style fire
minimize 0 0.001 10000 10000
Switching to 'neigh_modify every 1 delay 0 check yes' setting during minimization
  Parameters for fire:
    dmax  delaystep dtgrow dtshrink alpha0 alphashrink tmax tmin   integrator   halfstepback   abcfire  
     0.1     20      1.1     0.5     0.25     0.99      10  0.02 eulerimplicit      yes          no     
Per MPI rank memory allocation (min/avg/max) = 12.72 | 12.72 | 12.72 Mbytes
   Step          Temp          E_pair         E_mol          TotEng         Press     
       268   0             -2828.4003      0             -2828.4003      3664.3274    
       338   0.00026114902 -2828.4034      0             -2828.4034      3735.038     
Loop time of 0.119074 on 1 procs for 70 steps with 687 atoms

99.9% CPU use with 1 MPI tasks x 1 OpenMP threads

Minimization stats:
  Stopping criterion = force tolerance
  Energy initial, next-to-last, final = 
     -2828.40025461223  -2828.40340917508  -2828.40340984665
  Force two-norm initial, final = 0.25252822 0.00098687332
  Force max component initial, final = 0.074074861 9.0410117e-05
  Final line search alpha, max atom move = 0 0
  Iterations, force evaluations = 70 72

MPI task timing breakdown:
Section |  min time  |  avg time  |  max time  |%varavg| %total
---------------------------------------------------------------
Pair    | 0.11668    | 0.11668    | 0.11668    |   0.0 | 97.99
Neigh   | 0          | 0          | 0          |   0.0 |  0.00
Comm    | 0.00054817 | 0.00054817 | 0.00054817 |   0.0 |  0.46
Output  | 0          | 0          | 0          |   0.0 |  0.00
Modify  | 0.001161   | 0.001161   | 0.001161   |   0.0 |  0.97
Other   |            | 0.000688   |            |       |  0.58

Nlocal:            687 ave         687 max         687 min
Histogram: 1 0 0 0 0 0 0 0 0 0
Nghost:           3239 ave        3239 max        3239 min
Histogram: 1 0 0 0 0 0 0 0 0 0
Neighs:          57787 ave       57787 max       57787 min
Histogram: 1 0 0 0 0 0 0 0 0 0

Total # of neighbors = 57787
Ave neighs/atom = 84.114993
Neighbor list builds = 0
Dangerous builds = 0
run 0
Per MPI rank memory allocation (min/avg/max) = 12.72 | 12.72 | 12.72 Mbytes
   Step          Temp          E_pair         E_mol          TotEng         Press     
       338   0.00026114902 -2828.4034      0             -2828.4034      3735.038     
Loop time of 3.75e-07 on 1 procs for 0 steps with 687 atoms

266.7% CPU use with 1 MPI tasks x 1 OpenMP threads

MPI task timing breakdown:
Section |  min time  |  avg time  |  max time  |%varavg| %total
---------------------------------------------------------------
Pair    | 0          | 0          | 0          |   0.0 |  0.00
Neigh   | 0          | 0          | 0          |   0.0 |  0.00
Comm    | 0          | 0          | 0          |   0.0 |  0.00
Output  | 0          | 0          | 0          |   0.0 |  0.00
Modify  | 0          | 0          | 0          |   0.0 |  0.00
Other   |            | 3.75e-07   |            |       |100.00

Nlocal:            687 ave         687 max         687 min
Histogram: 1 0 0 0 0 0 0 0 0 0
Nghost:           3239 ave        3239 max        3239 min
Histogram: 1 0 0 0 0 0 0 0 0 0
Neighs:          57787 ave       57787 max       57787 min
Histogram: 1 0 0 0 0 0 0 0 0 0

Total # of neighbors = 57787
Ave neighs/atom = 84.114993
Neighbor list builds = 0
Dangerous builds = 0
reset_timestep 0
fix ae all ave/time 1 50 100 c_pe
run 100
Per MPI rank memory allocation (min/avg/max) = 12.72 | 12.72 | 12.72 Mbytes
   Step          Temp          E_pair         E_mol          TotEng         Press     
         0   0.00026114902 -2828.4034      0             -2828.4034      3735.038     
       100   0             -2810.1976      0             -2810.1976      7161.1661    
Loop time of 0.171101 on 1 procs for 100 steps with 687 atoms

Performance: 50.497 ns/day, 0.475 hours/ns, 584.451 timesteps/s, 401.518 katom-step/s
99.9% CPU use with 1 MPI tasks x 1 OpenMP threads

MPI task timing breakdown:
Section |  min time  |  avg time  |  max time  |%varavg| %total
---------------------------------------------------------------
Pair    | 0.16609    | 0.16609    | 0.16609    |   0.0 | 97.07
Neigh   | 0          | 0          | 0          |   0.0 |  0.00
Comm    | 0.00074954 | 0.00074954 | 0.00074954 |   0.0 |  0.44
Output  | 3.333e-06  | 3.333e-06  | 3.333e-06  |   0.0 |  0.00
Modify  | 0.0041312  | 0.0041312  | 0.0041312  |   0.0 |  2.41
Other   |            | 0.0001226  |            |       |  0.07

Nlocal:            687 ave         687 max         687 min
Histogram: 1 0 0 0 0 0 0 0 0 0
Nghost:           3239 ave        3239 max        3239 min
Histogram: 1 0 0 0 0 0 0 0 0 0
Neighs:          57787 ave       57787 max       57787 min
Histogram: 1 0 0 0 0 0 0 0 0 0

Total # of neighbors = 57787
Ave neighs/atom = 84.114993
Neighbor list builds = 0
Dangerous builds = 0
unfix ae
run 0
Per MPI rank memory allocation (min/avg/max) = 12.72 | 12.72 | 12.72 Mbytes
   Step          Temp          E_pair         E_mol          TotEng         Press     
       100   0             -2810.1976      0             -2810.1976      7161.1661    
Loop time of 2.92e-07 on 1 procs for 0 steps with 687 atoms

1712.3% CPU use with 1 MPI tasks x 1 OpenMP threads

MPI task timing breakdown:
Section |  min time  |  avg time  |  max time  |%varavg| %total
---------------------------------------------------------------
Pair    | 0          | 0          | 0          |   0.0 |  0.00
Neigh   | 0          | 0          | 0          |   0.0 |  0.00
Comm    | 0          | 0          | 0          |   0.0 |  0.00
Output  | 0          | 0          | 0          |   0.0 |  0.00
Modify  | 0          | 0          | 0          |   0.0 |  0.00
Other   |            | 2.92e-07   |            |       |100.00

Nlocal:            687 ave         687 max         687 min
Histogram: 1 0 0 0 0 0 0 0 0 0
Nghost:           3239 ave        3239 max        3239 min
Histogram: 1 0 0 0 0 0 0 0 0 0
Neighs:          57794 ave       57794 max       57794 min
Histogram: 1 0 0 0 0 0 0 0 0 0

Total # of neighbors = 57794
Ave neighs/atom = 84.125182
Neighbor list builds = 0
Dangerous builds = 0
reset_timestep 0
fix ae all ave/time 1 100 100 c_pe
fix af all ave/time 1 100 100 f_hp[1] f_hp[2] f_hp[3] f_hp[4]
fix dV all ave/time 1 100 100 v_dV
run 0
Per MPI rank memory allocation (min/avg/max) = 12.72 | 12.72 | 12.72 Mbytes
   Step          Temp          E_pair         E_mol          TotEng         Press     
         0   0             -2810.1976      0             -2810.1976      7161.1661    
Loop time of 3.34e-07 on 1 procs for 0 steps with 687 atoms

1497.0% CPU use with 1 MPI tasks x 1 OpenMP threads

MPI task timing breakdown:
Section |  min time  |  avg time  |  max time  |%varavg| %total
---------------------------------------------------------------
Pair    | 0          | 0          | 0          |   0.0 |  0.00
Neigh   | 0          | 0          | 0          |   0.0 |  0.00
Comm    | 0          | 0          | 0          |   0.0 |  0.00
Output  | 0          | 0          | 0          |   0.0 |  0.00
Modify  | 0          | 0          | 0          |   0.0 |  0.00
Other   |            | 3.34e-07   |            |       |100.00

Nlocal:            687 ave         687 max         687 min
Histogram: 1 0 0 0 0 0 0 0 0 0
Nghost:           3239 ave        3239 max        3239 min
Histogram: 1 0 0 0 0 0 0 0 0 0
Neighs:          57794 ave       57794 max       57794 min
Histogram: 1 0 0 0 0 0 0 0 0 0

Total # of neighbors = 57794
Ave neighs/atom = 84.125182
Neighbor list builds = 0
Dangerous builds = 0
run 100
Per MPI rank memory allocation (min/avg/max) = 12.72 | 12.72 | 12.72 Mbytes
   Step          Temp          E_pair         E_mol          TotEng         Press     
         0   0             -2810.1976      0             -2810.1976      7161.1661    
       100   0             -2809.4897      0             -2809.4897      7075.6161    
Loop time of 0.193814 on 1 procs for 100 steps with 687 atoms

Performance: 44.579 ns/day, 0.538 hours/ns, 515.959 timesteps/s, 354.464 katom-step/s
99.9% CPU use with 1 MPI tasks x 1 OpenMP threads

MPI task timing breakdown:
Section |  min time  |  avg time  |  max time  |%varavg| %total
---------------------------------------------------------------
Pair    | 0.18842    | 0.18842    | 0.18842    |   0.0 | 97.22
Neigh   | 0          | 0          | 0          |   0.0 |  0.00
Comm    | 0.00074546 | 0.00074546 | 0.00074546 |   0.0 |  0.38
Output  | 6.208e-06  | 6.208e-06  | 6.208e-06  |   0.0 |  0.00
Modify  | 0.0045145  | 0.0045145  | 0.0045145  |   0.0 |  2.33
Other   |            | 0.0001308  |            |       |  0.07

Nlocal:            687 ave         687 max         687 min
Histogram: 1 0 0 0 0 0 0 0 0 0
Nghost:           3239 ave        3239 max        3239 min
Histogram: 1 0 0 0 0 0 0 0 0 0
Neighs:          57794 ave       57794 max       57794 min
Histogram: 1 0 0 0 0 0 0 0 0 0

Total # of neighbors = 57794
Ave neighs/atom = 84.125182
Neighbor list builds = 0
Dangerous builds = 0
unfix dV
run 0
Per MPI rank memory allocation (min/avg/max) = 12.72 | 12.72 | 12.72 Mbytes
   Step          Temp          E_pair         E_mol          TotEng         Press     
       100   0             -2809.4897      0             -2809.4897      7075.6161    
Loop time of 2.92e-07 on 1 procs for 0 steps with 687 atoms

1369.9% CPU use with 1 MPI tasks x 1 OpenMP threads

MPI task timing breakdown:
Section |  min time  |  avg time  |  max time  |%varavg| %total
---------------------------------------------------------------
Pair    | 0          | 0          | 0          |   0.0 |  0.00
Neigh   | 0          | 0          | 0          |   0.0 |  0.00
Comm    | 0          | 0          | 0          |   0.0 |  0.00
Output  | 0          | 0          | 0          |   0.0 |  0.00
Modify  | 0          | 0          | 0          |   0.0 |  0.00
Other   |            | 2.92e-07   |            |       |100.00

Nlocal:            687 ave         687 max         687 min
Histogram: 1 0 0 0 0 0 0 0 0 0
Nghost:           3239 ave        3239 max        3239 min
Histogram: 1 0 0 0 0 0 0 0 0 0
Neighs:          57790 ave       57790 max       57790 min
Histogram: 1 0 0 0 0 0 0 0 0 0

Total # of neighbors = 57790
Ave neighs/atom = 84.11936
Neighbor list builds = 0
Dangerous builds = 0
min_style fire
minimize 0 0.001 10000 10000
Switching to 'neigh_modify every 1 delay 0 check yes' setting during minimization
  Parameters for fire:
    dmax  delaystep dtgrow dtshrink alpha0 alphashrink tmax tmin   integrator   halfstepback   abcfire  
     0.1     20      1.1     0.5     0.25     0.99      10  0.02 eulerimplicit      yes          no     
Per MPI rank memory allocation (min/avg/max) = 12.72 | 12.72 | 12.72 Mbytes
   Step          Temp          E_pair         E_mol          TotEng         Press     
       100   0             -2809.4897      0             -2809.4897      7075.6161    
       246   6.8413232e-07 -2828.4034      0             -2828.4034      3735.2245    
Loop time of 0.277909 on 1 procs for 146 steps with 687 atoms

99.9% CPU use with 1 MPI tasks x 1 OpenMP threads

Minimization stats:
  Stopping criterion = force tolerance
  Energy initial, next-to-last, final = 
     -2809.48974496909  -2828.40340964804  -2828.40340965953
  Force two-norm initial, final = 19.518351 0.00099875277
  Force max component initial, final = 1.5957576 7.3293078e-05
  Final line search alpha, max atom move = 0 0
  Iterations, force evaluations = 146 152

MPI task timing breakdown:
Section |  min time  |  avg time  |  max time  |%varavg| %total
---------------------------------------------------------------
Pair    | 0.27279    | 0.27279    | 0.27279    |   0.0 | 98.16
Neigh   | 0          | 0          | 0          |   0.0 |  0.00
Comm    | 0.0011494  | 0.0011494  | 0.0011494  |   0.0 |  0.41
Output  | 0          | 0          | 0          |   0.0 |  0.00
Modify  | 0.0025353  | 0.0025353  | 0.0025353  |   0.0 |  0.91
Other   |            | 0.001432   |            |       |  0.52

Nlocal:            687 ave         687 max         687 min
Histogram: 1 0 0 0 0 0 0 0 0 0
Nghost:           3239 ave        3239 max        3239 min
Histogram: 1 0 0 0 0 0 0 0 0 0
Neighs:          57790 ave       57790 max       57790 min
Histogram: 1 0 0 0 0 0 0 0 0 0

Total # of neighbors = 57790
Ave neighs/atom = 84.11936
Neighbor list builds = 0
Dangerous builds = 0
unfix ae
unfix af
unfix hp
variable dV delete
uncompute V_1
uncompute V_2
unfix escale1
unfix escale2
run 0
WARNING: No fixes with time integration, atoms won't move (src/verlet.cpp:60)
Per MPI rank memory allocation (min/avg/max) = 12.34 | 12.34 | 12.34 Mbytes
   Step          Temp          E_pair         E_mol          TotEng         Press     
       246   6.8413232e-07 -2828.4034      0             -2828.4034      3735.2245    
Loop time of 2.91e-07 on 1 procs for 0 steps with 687 atoms

1374.6% CPU use with 1 MPI tasks x 1 OpenMP threads

MPI task timing breakdown:
Section |  min time  |  avg time  |  max time  |%varavg| %total
---------------------------------------------------------------
Pair    | 0          | 0          | 0          |   0.0 |  0.00
Neigh   | 0          | 0          | 0          |   0.0 |  0.00
Comm    | 0          | 0          | 0          |   0.0 |  0.00
Output  | 0          | 0          | 0          |   0.0 |  0.00
Modify  | 0          | 0          | 0          |   0.0 |  0.00
Other   |            | 2.91e-07   |            |       |100.00

Nlocal:            687 ave         687 max         687 min
Histogram: 1 0 0 0 0 0 0 0 0 0
Nghost:           3239 ave        3239 max        3239 min
Histogram: 1 0 0 0 0 0 0 0 0 0
Neighs:          57787 ave       57787 max       57787 min
Histogram: 1 0 0 0 0 0 0 0 0 0

Total # of neighbors = 57787
Ave neighs/atom = 84.114993
Neighbor list builds = 0
Dangerous builds = 0
change_box all x scale 1.000000 y scale 1.000000 z scale 1.000000
Changing box ...
  orthogonal box = (0 0 0) to (19.987184 19.987184 19.987184)
  orthogonal box = (0 0 0) to (19.987184 19.987184 19.987184)
  orthogonal box = (0 0 0) to (19.987184 19.987184 19.987184)
run 0
WARNING: No fixes with time integration, atoms won't move (src/verlet.cpp:60)
Per MPI rank memory allocation (min/avg/max) = 12.34 | 12.34 | 12.34 Mbytes
   Step          Temp          E_pair         E_mol          TotEng         Press     
       246   6.8413232e-07 -2828.4034      0             -2828.4034      3735.2245    
Loop time of 3.33e-07 on 1 procs for 0 steps with 687 atoms

1201.2% CPU use with 1 MPI tasks x 1 OpenMP threads

MPI task timing breakdown:
Section |  min time  |  avg time  |  max time  |%varavg| %total
---------------------------------------------------------------
Pair    | 0          | 0          | 0          |   0.0 |  0.00
Neigh   | 0          | 0          | 0          |   0.0 |  0.00
Comm    | 0          | 0          | 0          |   0.0 |  0.00
Output  | 0          | 0          | 0          |   0.0 |  0.00
Modify  | 0          | 0          | 0          |   0.0 |  0.00
Other   |            | 3.33e-07   |            |       |100.00

Nlocal:            687 ave         687 max         687 min
Histogram: 1 0 0 0 0 0 0 0 0 0
Nghost:           3239 ave        3239 max        3239 min
Histogram: 1 0 0 0 0 0 0 0 0 0
Neighs:          57787 ave       57787 max       57787 min
Histogram: 1 0 0 0 0 0 0 0 0 0

Total # of neighbors = 57787
Ave neighs/atom = 84.114993
Neighbor list builds = 0
Dangerous builds = 0
run 0
WARNING: No fixes with time integration, atoms won't move (src/verlet.cpp:60)
Per MPI rank memory allocation (min/avg/max) = 12.34 | 12.34 | 12.34 Mbytes
   Step          Temp          E_pair         E_mol          TotEng         Press     
       246   6.8413232e-07 -2828.4003      0             -2828.4003      3664.3274    
Loop time of 3.34e-07 on 1 procs for 0 steps with 687 atoms

0.0% CPU use with 1 MPI tasks x 1 OpenMP threads

MPI task timing breakdown:
Section |  min time  |  avg time  |  max time  |%varavg| %total
---------------------------------------------------------------
Pair    | 0          | 0          | 0          |   0.0 |  0.00
Neigh   | 0          | 0          | 0          |   0.0 |  0.00
Comm    | 0          | 0          | 0          |   0.0 |  0.00
Output  | 0          | 0          | 0          |   0.0 |  0.00
Modify  | 0          | 0          | 0          |   0.0 |  0.00
Other   |            | 3.34e-07   |            |       |100.00

Nlocal:            687 ave         687 max         687 min
Histogram: 1 0 0 0 0 0 0 0 0 0
Nghost:           3239 ave        3239 max        3239 min
Histogram: 1 0 0 0 0 0 0 0 0 0
Neighs:          57787 ave       57787 max       57787 min
Histogram: 1 0 0 0 0 0 0 0 0 0

Total # of neighbors = 57787
Ave neighs/atom = 84.114993
Neighbor list builds = 0
Dangerous builds = 0
change_box all x scale 1.000000 y scale 1.000000 z scale 1.000000
Changing box ...
  orthogonal box = (0 0 0) to (19.987184 19.987184 19.987184)
  orthogonal box = (0 0 0) to (19.987184 19.987184 19.987184)
  orthogonal box = (0 0 0) to (19.987184 19.987184 19.987184)
run 0
WARNING: No fixes with time integration, atoms won't move (src/verlet.cpp:60)
Per MPI rank memory allocation (min/avg/max) = 12.34 | 12.34 | 12.34 Mbytes
   Step          Temp          E_pair         E_mol          TotEng         Press     
       246   6.8413232e-07 -2828.4003      0             -2828.4003      3664.3274    
Loop time of 3.34e-07 on 1 procs for 0 steps with 687 atoms

1197.6% CPU use with 1 MPI tasks x 1 OpenMP threads

MPI task timing breakdown:
Section |  min time  |  avg time  |  max time  |%varavg| %total
---------------------------------------------------------------
Pair    | 0          | 0          | 0          |   0.0 |  0.00
Neigh   | 0          | 0          | 0          |   0.0 |  0.00
Comm    | 0          | 0          | 0          |   0.0 |  0.00
Output  | 0          | 0          | 0          |   0.0 |  0.00
Modify  | 0          | 0          | 0          |   0.0 |  0.00
Other   |            | 3.34e-07   |            |       |100.00

Nlocal:            687 ave         687 max         687 min
Histogram: 1 0 0 0 0 0 0 0 0 0
Nghost:           3239 ave        3239 max        3239 min
Histogram: 1 0 0 0 0 0 0 0 0 0
Neighs:          57787 ave       57787 max       57787 min
Histogram: 1 0 0 0 0 0 0 0 0 0

Total # of neighbors = 57787
Ave neighs/atom = 84.114993
Neighbor list builds = 0
Dangerous builds = 0
run 0
WARNING: No fixes with time integration, atoms won't move (src/verlet.cpp:60)
Per MPI rank memory allocation (min/avg/max) = 12.34 | 12.34 | 12.34 Mbytes
   Step          Temp          E_pair         E_mol          TotEng         Press     
       246   6.8413232e-07 -2828.4003      0             -2828.4003      3664.3274    
Loop time of 2.92e-07 on 1 procs for 0 steps with 687 atoms

1369.9% CPU use with 1 MPI tasks x 1 OpenMP threads

MPI task timing breakdown:
Section |  min time  |  avg time  |  max time  |%varavg| %total
---------------------------------------------------------------
Pair    | 0          | 0          | 0          |   0.0 |  0.00
Neigh   | 0          | 0          | 0          |   0.0 |  0.00
Comm    | 0          | 0          | 0          |   0.0 |  0.00
Output  | 0          | 0          | 0          |   0.0 |  0.00
Modify  | 0          | 0          | 0          |   0.0 |  0.00
Other   |            | 2.92e-07   |            |       |100.00

Nlocal:            687 ave         687 max         687 min
Histogram: 1 0 0 0 0 0 0 0 0 0
Nghost:           3239 ave        3239 max        3239 min
Histogram: 1 0 0 0 0 0 0 0 0 0
Neighs:          57787 ave       57787 max       57787 min
Histogram: 1 0 0 0 0 0 0 0 0 0

Total # of neighbors = 57787
Ave neighs/atom = 84.114993
Neighbor list builds = 0
Dangerous builds = 0
variable l1 equal 1.0-0.400000
variable l2 equal 0.0+0.400000
run 0
WARNING: No fixes with time integration, atoms won't move (src/verlet.cpp:60)
Per MPI rank memory allocation (min/avg/max) = 12.34 | 12.34 | 12.34 Mbytes
   Step          Temp          E_pair         E_mol          TotEng         Press     
       246   6.8413232e-07 -2828.4003      0             -2828.4003      3664.3274    
Loop time of 3.33e-07 on 1 procs for 0 steps with 687 atoms

300.3% CPU use with 1 MPI tasks x 1 OpenMP threads

MPI task timing breakdown:
Section |  min time  |  avg time  |  max time  |%varavg| %total
---------------------------------------------------------------
Pair    | 0          | 0          | 0          |   0.0 |  0.00
Neigh   | 0          | 0          | 0          |   0.0 |  0.00
Comm    | 0          | 0          | 0          |   0.0 |  0.00
Output  | 0          | 0          | 0          |   0.0 |  0.00
Modify  | 0          | 0          | 0          |   0.0 |  0.00
Other   |            | 3.33e-07   |            |       |100.00

Nlocal:            687 ave         687 max         687 min
Histogram: 1 0 0 0 0 0 0 0 0 0
Nghost:           3239 ave        3239 max        3239 min
Histogram: 1 0 0 0 0 0 0 0 0 0
Neighs:          57787 ave       57787 max       57787 min
Histogram: 1 0 0 0 0 0 0 0 0 0

Total # of neighbors = 57787
Ave neighs/atom = 84.114993
Neighbor list builds = 0
Dangerous builds = 0
fix escale1 all adapt 1 pair eam/fs:1 scale * * v_l1
fix escale2 all adapt 1 pair eam/fs:2 scale * * v_l2
run 0
WARNING: No fixes with time integration, atoms won't move (src/verlet.cpp:60)
Per MPI rank memory allocation (min/avg/max) = 12.34 | 12.34 | 12.34 Mbytes
   Step          Temp          E_pair         E_mol          TotEng         Press     
       246   6.8413232e-07 -2828.422       0             -2828.422       3500.248     
Loop time of 2.92e-07 on 1 procs for 0 steps with 687 atoms

1027.4% CPU use with 1 MPI tasks x 1 OpenMP threads

MPI task timing breakdown:
Section |  min time  |  avg time  |  max time  |%varavg| %total
---------------------------------------------------------------
Pair    | 0          | 0          | 0          |   0.0 |  0.00
Neigh   | 0          | 0          | 0          |   0.0 |  0.00
Comm    | 0          | 0          | 0          |   0.0 |  0.00
Output  | 0          | 0          | 0          |   0.0 |  0.00
Modify  | 0          | 0          | 0          |   0.0 |  0.00
Other   |            | 2.92e-07   |            |       |100.00

Nlocal:            687 ave         687 max         687 min
Histogram: 1 0 0 0 0 0 0 0 0 0
Nghost:           3239 ave        3239 max        3239 min
Histogram: 1 0 0 0 0 0 0 0 0 0
Neighs:          57787 ave       57787 max       57787 min
Histogram: 1 0 0 0 0 0 0 0 0 0

Total # of neighbors = 57787
Ave neighs/atom = 84.114993
Neighbor list builds = 0
Dangerous builds = 0
compute V_1 all pair eam/fs 1
compute V_2 all pair eam/fs 2
variable V_1 equal (c_V_1/(0.000001+v_l1))
variable V_2 equal (c_V_2/(0.000001+v_l2))
variable dV equal v_V_2-v_V_1
run 0
WARNING: No fixes with time integration, atoms won't move (src/verlet.cpp:60)
Per MPI rank memory allocation (min/avg/max) = 12.34 | 12.34 | 12.34 Mbytes
   Step          Temp          E_pair         E_mol          TotEng         Press     
       246   6.8413232e-07 -2828.422       0             -2828.422       3500.248     
Loop time of 3.33e-07 on 1 procs for 0 steps with 687 atoms

300.3% CPU use with 1 MPI tasks x 1 OpenMP threads

MPI task timing breakdown:
Section |  min time  |  avg time  |  max time  |%varavg| %total
---------------------------------------------------------------
Pair    | 0          | 0          | 0          |   0.0 |  0.00
Neigh   | 0          | 0          | 0          |   0.0 |  0.00
Comm    | 0          | 0          | 0          |   0.0 |  0.00
Output  | 0          | 0          | 0          |   0.0 |  0.00
Modify  | 0          | 0          | 0          |   0.0 |  0.00
Other   |            | 3.33e-07   |            |       |100.00

Nlocal:            687 ave         687 max         687 min
Histogram: 1 0 0 0 0 0 0 0 0 0
Nghost:           3239 ave        3239 max        3239 min
Histogram: 1 0 0 0 0 0 0 0 0 0
Neighs:          57787 ave       57787 max       57787 min
Histogram: 1 0 0 0 0 0 0 0 0 0

Total # of neighbors = 57787
Ave neighs/atom = 84.114993
Neighbor list builds = 0
Dangerous builds = 0
change_box all x scale 1.000000 y scale 1.000000 z scale 1.000000
Changing box ...
  orthogonal box = (0 0 0) to (19.987184 19.987184 19.987184)
  orthogonal box = (0 0 0) to (19.987184 19.987184 19.987184)
  orthogonal box = (0 0 0) to (19.987184 19.987184 19.987184)
run 0
WARNING: No fixes with time integration, atoms won't move (src/verlet.cpp:60)
Per MPI rank memory allocation (min/avg/max) = 12.34 | 12.34 | 12.34 Mbytes
   Step          Temp          E_pair         E_mol          TotEng         Press     
       246   6.8413232e-07 -2828.422       0             -2828.422       3500.248     
Loop time of 2.92e-07 on 1 procs for 0 steps with 687 atoms

342.5% CPU use with 1 MPI tasks x 1 OpenMP threads

MPI task timing breakdown:
Section |  min time  |  avg time  |  max time  |%varavg| %total
---------------------------------------------------------------
Pair    | 0          | 0          | 0          |   0.0 |  0.00
Neigh   | 0          | 0          | 0          |   0.0 |  0.00
Comm    | 0          | 0          | 0          |   0.0 |  0.00
Output  | 0          | 0          | 0          |   0.0 |  0.00
Modify  | 0          | 0          | 0          |   0.0 |  0.00
Other   |            | 2.92e-07   |            |       |100.00

Nlocal:            687 ave         687 max         687 min
Histogram: 1 0 0 0 0 0 0 0 0 0
Nghost:           3239 ave        3239 max        3239 min
Histogram: 1 0 0 0 0 0 0 0 0 0
Neighs:          57787 ave       57787 max       57787 min
Histogram: 1 0 0 0 0 0 0 0 0 0

Total # of neighbors = 57787
Ave neighs/atom = 84.114993
Neighbor list builds = 0
Dangerous builds = 0
run 0
WARNING: No fixes with time integration, atoms won't move (src/verlet.cpp:60)
Per MPI rank memory allocation (min/avg/max) = 12.34 | 12.34 | 12.34 Mbytes
   Step          Temp          E_pair         E_mol          TotEng         Press     
       246   6.8413232e-07 -2828.422       0             -2828.422       3500.248     
Loop time of 3.34e-07 on 1 procs for 0 steps with 687 atoms

898.2% CPU use with 1 MPI tasks x 1 OpenMP threads

MPI task timing breakdown:
Section |  min time  |  avg time  |  max time  |%varavg| %total
---------------------------------------------------------------
Pair    | 0          | 0          | 0          |   0.0 |  0.00
Neigh   | 0          | 0          | 0          |   0.0 |  0.00
Comm    | 0          | 0          | 0          |   0.0 |  0.00
Output  | 0          | 0          | 0          |   0.0 |  0.00
Modify  | 0          | 0          | 0          |   0.0 |  0.00
Other   |            | 3.34e-07   |            |       |100.00

Nlocal:            687 ave         687 max         687 min
Histogram: 1 0 0 0 0 0 0 0 0 0
Nghost:           3239 ave        3239 max        3239 min
Histogram: 1 0 0 0 0 0 0 0 0 0
Neighs:          57787 ave       57787 max       57787 min
Histogram: 1 0 0 0 0 0 0 0 0 0

Total # of neighbors = 57787
Ave neighs/atom = 84.114993
Neighbor list builds = 0
Dangerous builds = 0
fix hp all pafi __pafipath 200.000000 0.05 137 overdamped 1 com 1
fix pafi compute name,style: __pafipath,property/atom
run 0
Per MPI rank memory allocation (min/avg/max) = 12.72 | 12.72 | 12.72 Mbytes
   Step          Temp          E_pair         E_mol          TotEng         Press     
[...]
Neigh   | 0          | 0          | 0          |   0.0 |  0.00
Comm    | 0          | 0          | 0          |   0.0 |  0.00
Output  | 0          | 0          | 0          |   0.0 |  0.00
Modify  | 0          | 0          | 0          |   0.0 |  0.00
Other   |            | 3.34e-07   |            |       |100.00

Nlocal:            687 ave         687 max         687 min
Histogram: 1 0 0 0 0 0 0 0 0 0
Nghost:           3239 ave        3239 max        3239 min
Histogram: 1 0 0 0 0 0 0 0 0 0
Neighs:          57791 ave       57791 max       57791 min
Histogram: 1 0 0 0 0 0 0 0 0 0

Total # of neighbors = 57791
Ave neighs/atom = 84.120815
Neighbor list builds = 0
Dangerous builds = 0
run 0
Per MPI rank memory allocation (min/avg/max) = 12.34 | 12.34 | 12.34 Mbytes
   Step          Temp          E_pair         E_mol          TotEng         Press     
       229   9.4067304e-05 -2828.1552      0             -2828.1552      3063.364     
Loop time of 3.34e-07 on 1 procs for 0 steps with 687 atoms

299.4% CPU use with 1 MPI tasks x 1 OpenMP threads

MPI task timing breakdown:
Section |  min time  |  avg time  |  max time  |%varavg| %total
---------------------------------------------------------------
Pair    | 0          | 0          | 0          |   0.0 |  0.00
Neigh   | 0          | 0          | 0          |   0.0 |  0.00
Comm    | 0          | 0          | 0          |   0.0 |  0.00
Output  | 0          | 0          | 0          |   0.0 |  0.00
Modify  | 0          | 0          | 0          |   0.0 |  0.00
Other   |            | 3.34e-07   |            |       |100.00

Nlocal:            687 ave         687 max         687 min
Histogram: 1 0 0 0 0 0 0 0 0 0
Nghost:           3239 ave        3239 max        3239 min
Histogram: 1 0 0 0 0 0 0 0 0 0
Neighs:          57791 ave       57791 max       57791 min
Histogram: 1 0 0 0 0 0 0 0 0 0

Total # of neighbors = 57791
Ave neighs/atom = 84.120815
Neighbor list builds = 0
Dangerous builds = 0
fix hp all pafi __pafipath 200.000000 0.05 137 overdamped 1 com 1
fix pafi compute name,style: __pafipath,property/atom
run 0
Per MPI rank memory allocation (min/avg/max) = 12.72 | 12.72 | 12.72 Mbytes
   Step          Temp          E_pair         E_mol          TotEng         Press     
       229   9.4067304e-05 -2828.1552      0             -2828.1552      3063.364     
Loop time of 3.34e-07 on 1 procs for 0 steps with 687 atoms

898.2% CPU use with 1 MPI tasks x 1 OpenMP threads

MPI task timing breakdown:
Section |  min time  |  avg time  |  max time  |%varavg| %total
---------------------------------------------------------------
Pair    | 0          | 0          | 0          |   0.0 |  0.00
Neigh   | 0          | 0          | 0          |   0.0 |  0.00
Comm    | 0          | 0          | 0          |   0.0 |  0.00
Output  | 0          | 0          | 0          |   0.0 |  0.00
Modify  | 0          | 0          | 0          |   0.0 |  0.00
Other   |            | 3.34e-07   |            |       |100.00

Nlocal:            687 ave         687 max         687 min
Histogram: 1 0 0 0 0 0 0 0 0 0
Nghost:           3239 ave        3239 max        3239 min
Histogram: 1 0 0 0 0 0 0 0 0 0
Neighs:          57791 ave       57791 max       57791 min
Histogram: 1 0 0 0 0 0 0 0 0 0

Total # of neighbors = 57791
Ave neighs/atom = 84.120815
Neighbor list builds = 0
Dangerous builds = 0
min_style fire
minimize 0 0.001 10000 10000
Switching to 'neigh_modify every 1 delay 0 check yes' setting during minimization
  Parameters for fire:
    dmax  delaystep dtgrow dtshrink alpha0 alphashrink tmax tmin   integrator   halfstepback   abcfire  
     0.1     20      1.1     0.5     0.25     0.99      10  0.02 eulerimplicit      yes          no     
Per MPI rank memory allocation (min/avg/max) = 12.72 | 12.72 | 12.72 Mbytes
   Step          Temp          E_pair         E_mol          TotEng         Press     
       229   0             -2828.1552      0             -2828.1552      3063.3628    
       320   1.0752261e-05 -2828.2719      0             -2828.2719      3166.4137    
Loop time of 0.167373 on 1 procs for 91 steps with 687 atoms

99.9% CPU use with 1 MPI tasks x 1 OpenMP threads

Minimization stats:
  Stopping criterion = force tolerance
  Energy initial, next-to-last, final = 
     -2828.15521730582   -2828.2718822703  -2828.27188234753
  Force two-norm initial, final = 1.2398713 0.00094495732
  Force max component initial, final = 0.2754317 0.00010973729
  Final line search alpha, max atom move = 0 0
  Iterations, force evaluations = 91 94

MPI task timing breakdown:
Section |  min time  |  avg time  |  max time  |%varavg| %total
---------------------------------------------------------------
Pair    | 0.16422    | 0.16422    | 0.16422    |   0.0 | 98.11
Neigh   | 0          | 0          | 0          |   0.0 |  0.00
Comm    | 0.00071262 | 0.00071262 | 0.00071262 |   0.0 |  0.43
Output  | 0          | 0          | 0          |   0.0 |  0.00
Modify  | 0.0015492  | 0.0015492  | 0.0015492  |   0.0 |  0.93
Other   |            | 0.0008942  |            |       |  0.53

Nlocal:            687 ave         687 max         687 min
Histogram: 1 0 0 0 0 0 0 0 0 0
Nghost:           3239 ave        3239 max        3239 min
Histogram: 1 0 0 0 0 0 0 0 0 0
Neighs:          57791 ave       57791 max       57791 min
Histogram: 1 0 0 0 0 0 0 0 0 0

Total # of neighbors = 57791
Ave neighs/atom = 84.120815
Neighbor list builds = 0
Dangerous builds = 0
run 0
Per MPI rank memory allocation (min/avg/max) = 12.72 | 12.72 | 12.72 Mbytes
   Step          Temp          E_pair         E_mol          TotEng         Press     
       320   1.0752261e-05 -2828.2719      0             -2828.2719      3166.4137    
Loop time of 3.33e-07 on 1 procs for 0 steps with 687 atoms

900.9% CPU use with 1 MPI tasks x 1 OpenMP threads

MPI task timing breakdown:
Section |  min time  |  avg time  |  max time  |%varavg| %total
---------------------------------------------------------------
Pair    | 0          | 0          | 0          |   0.0 |  0.00
Neigh   | 0          | 0          | 0          |   0.0 |  0.00
Comm    | 0          | 0          | 0          |   0.0 |  0.00
Output  | 0          | 0          | 0          |   0.0 |  0.00
Modify  | 0          | 0          | 0          |   0.0 |  0.00
Other   |            | 3.33e-07   |            |       |100.00

Nlocal:            687 ave         687 max         687 min
Histogram: 1 0 0 0 0 0 0 0 0 0
Nghost:           3239 ave        3239 max        3239 min
Histogram: 1 0 0 0 0 0 0 0 0 0
Neighs:          57797 ave       57797 max       57797 min
Histogram: 1 0 0 0 0 0 0 0 0 0

Total # of neighbors = 57797
Ave neighs/atom = 84.129549
Neighbor list builds = 0
Dangerous builds = 0
reset_timestep 0
fix ae all ave/time 1 50 100 c_pe
run 100
Per MPI rank memory allocation (min/avg/max) = 12.72 | 12.72 | 12.72 Mbytes
   Step          Temp          E_pair         E_mol          TotEng         Press     
         0   1.0752261e-05 -2828.2719      0             -2828.2719      3166.4137    
       100   0             -2809.7377      0             -2809.7377      3755.1883    
Loop time of 0.172183 on 1 procs for 100 steps with 687 atoms

Performance: 50.179 ns/day, 0.478 hours/ns, 580.779 timesteps/s, 398.995 katom-step/s
99.9% CPU use with 1 MPI tasks x 1 OpenMP threads

MPI task timing breakdown:
Section |  min time  |  avg time  |  max time  |%varavg| %total
---------------------------------------------------------------
Pair    | 0.16712    | 0.16712    | 0.16712    |   0.0 | 97.06
Neigh   | 0          | 0          | 0          |   0.0 |  0.00
Comm    | 0.00074849 | 0.00074849 | 0.00074849 |   0.0 |  0.43
Output  | 3.5e-06    | 3.5e-06    | 3.5e-06    |   0.0 |  0.00
Modify  | 0.0041752  | 0.0041752  | 0.0041752  |   0.0 |  2.42
Other   |            | 0.0001338  |            |       |  0.08

Nlocal:            687 ave         687 max         687 min
Histogram: 1 0 0 0 0 0 0 0 0 0
Nghost:           3239 ave        3239 max        3239 min
Histogram: 1 0 0 0 0 0 0 0 0 0
Neighs:          57797 ave       57797 max       57797 min
Histogram: 1 0 0 0 0 0 0 0 0 0

Total # of neighbors = 57797
Ave neighs/atom = 84.129549
Neighbor list builds = 0
Dangerous builds = 0
unfix ae
run 0
Per MPI rank memory allocation (min/avg/max) = 12.72 | 12.72 | 12.72 Mbytes
   Step          Temp          E_pair         E_mol          TotEng         Press     
       100   0             -2809.7377      0             -2809.7377      3755.1883    
Loop time of 2.92e-07 on 1 procs for 0 steps with 687 atoms

1369.9% CPU use with 1 MPI tasks x 1 OpenMP threads

MPI task timing breakdown:
Section |  min time  |  avg time  |  max time  |%varavg| %total
---------------------------------------------------------------
Pair    | 0          | 0          | 0          |   0.0 |  0.00
Neigh   | 0          | 0          | 0          |   0.0 |  0.00
Comm    | 0          | 0          | 0          |   0.0 |  0.00
Output  | 0          | 0          | 0          |   0.0 |  0.00
Modify  | 0          | 0          | 0          |   0.0 |  0.00
Other   |            | 2.92e-07   |            |       |100.00

Nlocal:            687 ave         687 max         687 min
Histogram: 1 0 0 0 0 0 0 0 0 0
Nghost:           3239 ave        3239 max        3239 min
Histogram: 1 0 0 0 0 0 0 0 0 0
Neighs:          57792 ave       57792 max       57792 min
Histogram: 1 0 0 0 0 0 0 0 0 0

Total # of neighbors = 57792
Ave neighs/atom = 84.122271
Neighbor list builds = 0
Dangerous builds = 0
reset_timestep 0
fix ae all ave/time 1 100 100 c_pe
fix af all ave/time 1 100 100 f_hp[1] f_hp[2] f_hp[3] f_hp[4]
fix dV all ave/time 1 100 100 v_dV
run 0
Per MPI rank memory allocation (min/avg/max) = 12.72 | 12.72 | 12.72 Mbytes
   Step          Temp          E_pair         E_mol          TotEng         Press     
         0   0             -2809.7377      0             -2809.7377      3755.1883    
Loop time of 3.33e-07 on 1 procs for 0 steps with 687 atoms

1201.2% CPU use with 1 MPI tasks x 1 OpenMP threads

MPI task timing breakdown:
Section |  min time  |  avg time  |  max time  |%varavg| %total
---------------------------------------------------------------
Pair    | 0          | 0          | 0          |   0.0 |  0.00
Neigh   | 0          | 0          | 0          |   0.0 |  0.00
Comm    | 0          | 0          | 0          |   0.0 |  0.00
Output  | 0          | 0          | 0          |   0.0 |  0.00
Modify  | 0          | 0          | 0          |   0.0 |  0.00
Other   |            | 3.33e-07   |            |       |100.00

Nlocal:            687 ave         687 max         687 min
Histogram: 1 0 0 0 0 0 0 0 0 0
Nghost:           3239 ave        3239 max        3239 min
Histogram: 1 0 0 0 0 0 0 0 0 0
Neighs:          57792 ave       57792 max       57792 min
Histogram: 1 0 0 0 0 0 0 0 0 0

Total # of neighbors = 57792
Ave neighs/atom = 84.122271
Neighbor list builds = 0
Dangerous builds = 0
run 100
Per MPI rank memory allocation (min/avg/max) = 12.72 | 12.72 | 12.72 Mbytes
   Step          Temp          E_pair         E_mol          TotEng         Press     
         0   0             -2809.7377      0             -2809.7377      3755.1883    
       100   0             -2809.0073      0             -2809.0073      3325.295     
Loop time of 0.193763 on 1 procs for 100 steps with 687 atoms

Performance: 44.591 ns/day, 0.538 hours/ns, 516.094 timesteps/s, 354.557 katom-step/s
99.9% CPU use with 1 MPI tasks x 1 OpenMP threads

MPI task timing breakdown:
Section |  min time  |  avg time  |  max time  |%varavg| %total
---------------------------------------------------------------
Pair    | 0.18837    | 0.18837    | 0.18837    |   0.0 | 97.22
Neigh   | 0          | 0          | 0          |   0.0 |  0.00
Comm    | 0.00074991 | 0.00074991 | 0.00074991 |   0.0 |  0.39
Output  | 6.417e-06  | 6.417e-06  | 6.417e-06  |   0.0 |  0.00
Modify  | 0.0045055  | 0.0045055  | 0.0045055  |   0.0 |  2.33
Other   |            | 0.0001344  |            |       |  0.07

Nlocal:            687 ave         687 max         687 min
Histogram: 1 0 0 0 0 0 0 0 0 0
Nghost:           3239 ave        3239 max        3239 min
Histogram: 1 0 0 0 0 0 0 0 0 0
Neighs:          57792 ave       57792 max       57792 min
Histogram: 1 0 0 0 0 0 0 0 0 0

Total # of neighbors = 57792
Ave neighs/atom = 84.122271
Neighbor list builds = 0
Dangerous builds = 0
unfix dV
run 0
Per MPI rank memory allocation (min/avg/max) = 12.72 | 12.72 | 12.72 Mbytes
   Step          Temp          E_pair         E_mol          TotEng         Press     
       100   0             -2809.0073      0             -2809.0073      3325.295     
Loop time of 3.34e-07 on 1 procs for 0 steps with 687 atoms

598.8% CPU use with 1 MPI tasks x 1 OpenMP threads

MPI task timing breakdown:
Section |  min time  |  avg time  |  max time  |%varavg| %total
---------------------------------------------------------------
Pair    | 0          | 0          | 0          |   0.0 |  0.00
Neigh   | 0          | 0          | 0          |   0.0 |  0.00
Comm    | 0          | 0          | 0          |   0.0 |  0.00
Output  | 0          | 0          | 0          |   0.0 |  0.00
Modify  | 0          | 0          | 0          |   0.0 |  0.00
Other   |            | 3.34e-07   |            |       |100.00

Nlocal:            687 ave         687 max         687 min
Histogram: 1 0 0 0 0 0 0 0 0 0
Nghost:           3239 ave        3239 max        3239 min
Histogram: 1 0 0 0 0 0 0 0 0 0
Neighs:          57789 ave       57789 max       57789 min
Histogram: 1 0 0 0 0 0 0 0 0 0

Total # of neighbors = 57789
Ave neighs/atom = 84.117904
Neighbor list builds = 0
Dangerous builds = 0
min_style fire
minimize 0 0.001 10000 10000
Switching to 'neigh_modify every 1 delay 0 check yes' setting during minimization
  Parameters for fire:
    dmax  delaystep dtgrow dtshrink alpha0 alphashrink tmax tmin   integrator   halfstepback   abcfire  
     0.1     20      1.1     0.5     0.25     0.99      10  0.02 eulerimplicit      yes          no     
Per MPI rank memory allocation (min/avg/max) = 12.72 | 12.72 | 12.72 Mbytes
   Step          Temp          E_pair         E_mol          TotEng         Press     
       100   0             -2809.0073      0             -2809.0073      3325.295     
       224   0.00010810228 -2828.2719      0             -2828.2719      3166.0954    
Loop time of 0.238529 on 1 procs for 124 steps with 687 atoms

99.8% CPU use with 1 MPI tasks x 1 OpenMP threads

Minimization stats:
  Stopping criterion = force tolerance
  Energy initial, next-to-last, final = 
     -2809.00733936711  -2828.27188242823  -2828.27188267085
  Force two-norm initial, final = 19.236542 0.00063389927
  Force max component initial, final = 1.3093458 0.0001267687
  Final line search alpha, max atom move = 0 0
  Iterations, force evaluations = 124 128

MPI task timing breakdown:
Section |  min time  |  avg time  |  max time  |%varavg| %total
---------------------------------------------------------------
Pair    | 0.23412    | 0.23412    | 0.23412    |   0.0 | 98.15
Neigh   | 0          | 0          | 0          |   0.0 |  0.00
Comm    | 0.00098013 | 0.00098013 | 0.00098013 |   0.0 |  0.41
Output  | 0          | 0          | 0          |   0.0 |  0.00
Modify  | 0.0021853  | 0.0021853  | 0.0021853  |   0.0 |  0.92
Other   |            | 0.001239   |            |       |  0.52

Nlocal:            687 ave         687 max         687 min
Histogram: 1 0 0 0 0 0 0 0 0 0
Nghost:           3239 ave        3239 max        3239 min
Histogram: 1 0 0 0 0 0 0 0 0 0
Neighs:          57789 ave       57789 max       57789 min
Histogram: 1 0 0 0 0 0 0 0 0 0

Total # of neighbors = 57789
Ave neighs/atom = 84.117904
Neighbor list builds = 0
Dangerous builds = 0
unfix ae
unfix af
unfix hp
variable dV delete
uncompute V_1
uncompute V_2
unfix escale1
unfix escale2
run 0
Per MPI rank memory allocation (min/avg/max) = 12.34 | 12.34 | 12.34 Mbytes
   Step          Temp          E_pair         E_mol          TotEng         Press     
       224   0.00010810228 -2828.2719      0             -2828.2719      3166.0954    
Loop time of 3.75e-07 on 1 procs for 0 steps with 687 atoms

0.0% CPU use with 1 MPI tasks x 1 OpenMP threads

MPI task timing breakdown:
Section |  min time  |  avg time  |  max time  |%varavg| %total
---------------------------------------------------------------
Pair    | 0          | 0          | 0          |   0.0 |  0.00
Neigh   | 0          | 0          | 0          |   0.0 |  0.00
Comm    | 0          | 0          | 0          |   0.0 |  0.00
Output  | 0          | 0          | 0          |   0.0 |  0.00
Modify  | 0          | 0          | 0          |   0.0 |  0.00
Other   |            | 3.75e-07   |            |       |100.00

Nlocal:            687 ave         687 max         687 min
Histogram: 1 0 0 0 0 0 0 0 0 0
Nghost:           3239 ave        3239 max        3239 min
Histogram: 1 0 0 0 0 0 0 0 0 0
Neighs:          57797 ave       57797 max       57797 min
Histogram: 1 0 0 0 0 0 0 0 0 0

Total # of neighbors = 57797
Ave neighs/atom = 84.129549
Neighbor list builds = 0
Dangerous builds = 0
change_box all x scale 1.000000 y scale 1.000000 z scale 1.000000
Changing box ...
  orthogonal box = (0 0 0) to (19.987184 19.987184 19.987184)
  orthogonal box = (0 0 0) to (19.987184 19.987184 19.987184)
  orthogonal box = (0 0 0) to (19.987184 19.987184 19.987184)
run 0
Per MPI rank memory allocation (min/avg/max) = 12.34 | 12.34 | 12.34 Mbytes
   Step          Temp          E_pair         E_mol          TotEng         Press     
       224   0.00010810228 -2828.2719      0             -2828.2719      3166.0954    
Loop time of 2.92e-07 on 1 procs for 0 steps with 687 atoms

0.0% CPU use with 1 MPI tasks x 1 OpenMP threads

MPI task timing breakdown:
Section |  min time  |  avg time  |  max time  |%varavg| %total
---------------------------------------------------------------
Pair    | 0          | 0          | 0          |   0.0 |  0.00
Neigh   | 0          | 0          | 0          |   0.0 |  0.00
Comm    | 0          | 0          | 0          |   0.0 |  0.00
Output  | 0          | 0          | 0          |   0.0 |  0.00
Modify  | 0          | 0          | 0          |   0.0 |  0.00
Other   |            | 2.92e-07   |            |       |100.00

Nlocal:            687 ave         687 max         687 min
Histogram: 1 0 0 0 0 0 0 0 0 0
Nghost:           3239 ave        3239 max        3239 min
Histogram: 1 0 0 0 0 0 0 0 0 0
Neighs:          57797 ave       57797 max       57797 min
Histogram: 1 0 0 0 0 0 0 0 0 0

Total # of neighbors = 57797
Ave neighs/atom = 84.129549
Neighbor list builds = 0
Dangerous builds = 0
run 0
Per MPI rank memory allocation (min/avg/max) = 12.34 | 12.34 | 12.34 Mbytes
   Step          Temp          E_pair         E_mol          TotEng         Press     
       224   0.00010810228 -2828.1552      0             -2828.1552      3063.3641    
Loop time of 2.92e-07 on 1 procs for 0 steps with 687 atoms

0.0% CPU use with 1 MPI tasks x 1 OpenMP threads

MPI task timing breakdown:
Section |  min time  |  avg time  |  max time  |%varavg| %total
---------------------------------------------------------------
Pair    | 0          | 0          | 0          |   0.0 |  0.00
Neigh   | 0          | 0          | 0          |   0.0 |  0.00
Comm    | 0          | 0          | 0          |   0.0 |  0.00
Output  | 0          | 0          | 0          |   0.0 |  0.00
Modify  | 0          | 0          | 0          |   0.0 |  0.00
Other   |            | 2.92e-07   |            |       |100.00

Nlocal:            687 ave         687 max         687 min
Histogram: 1 0 0 0 0 0 0 0 0 0
Nghost:           3239 ave        3239 max        3239 min
Histogram: 1 0 0 0 0 0 0 0 0 0
Neighs:          57791 ave       57791 max       57791 min
Histogram: 1 0 0 0 0 0 0 0 0 0

Total # of neighbors = 57791
Ave neighs/atom = 84.120815
Neighbor list builds = 0
Dangerous builds = 0
Total wall time: 0:00:10
