LAMMPS (28 Mar 2023 - Update 1)
WARNING: Using I/O redirection is unreliable with parallel runs. Better to use the -in switch to read input files. (src/lammps.cpp:531)
OMP_NUM_THREADS environment is not set. Defaulting to 1 thread. (src/comm.cpp:98)
  using 1 OpenMP thread(s) per MPI task
clear
OMP_NUM_THREADS environment is not set. Defaulting to 1 thread. (src/comm.cpp:98)
  using 1 OpenMP thread(s) per MPI task
units metal
atom_style atomic
atom_modify map array sort 0 0.0
neigh_modify every 2 delay 10 check yes page 1000000 one 100000
read_data  ../systems/EAM-EAM-SIA-Fe/image_1.dat
Reading data file ...
  orthogonal box = (0 0 0) to (19.987184 19.987184 19.987184)
  1 by 1 by 2 MPI processor grid
  reading atoms ...
  687 atoms
  reading velocities ...
  687 velocities
  read_data CPU = 0.003 seconds
pair_style    hybrid/overlay eam/fs eam/fs
pair_coeff * * eam/fs 1 ../systems/EAM-EAM-SIA-Fe/Fe.eam.fs Fe
pair_coeff * * eam/fs 2 ../systems/EAM-EAM-SIA-Fe/Fe_mm.eam.fs Fe
Reading eam/fs potential file ../systems/EAM-EAM-SIA-Fe/Fe_mm.eam.fs with DATE: 2007-06-11
run 0
WARNING: No fixes with time integration, atoms won't move (src/verlet.cpp:60)
Neighbor list info ...
  update: every = 2 steps, delay = 10 steps, check = yes
  max neighbors/atom: 100000, page size: 1000000
  master list distance cutoff = 7.8
  ghost atom cutoff = 7.8
  binsize = 3.9, bins = 6 6 6
  2 neighbor lists, perpetual/occasional/extra = 2 0 0
  (1) pair eam/fs, perpetual
      attributes: half, newton on
      pair build: half/bin/atomonly/newton
      stencil: half/bin/3d
      bin: standard
  (2) pair eam/fs, perpetual, trim from (1)
      attributes: half, newton on, cut 7.3
      pair build: trim
      stencil: none
      bin: none
Per MPI rank memory allocation (min/avg/max) = 11.08 | 11.08 | 11.08 Mbytes
   Step          Temp          E_pair         E_mol          TotEng         Press     
         0   2.3194503e-19 -5656.8657      0             -5656.8657      6836.4165    
Loop time of 1.7915e-06 on 2 procs for 0 steps with 687 atoms

111.6% CPU use with 2 MPI tasks x 1 OpenMP threads

MPI task timing breakdown:
Section |  min time  |  avg time  |  max time  |%varavg| %total
---------------------------------------------------------------
Pair    | 0          | 0          | 0          |   0.0 |  0.00
Neigh   | 0          | 0          | 0          |   0.0 |  0.00
Comm    | 0          | 0          | 0          |   0.0 |  0.00
Output  | 0          | 0          | 0          |   0.0 |  0.00
Modify  | 0          | 0          | 0          |   0.0 |  0.00
Other   |            | 1.791e-06  |            |       |100.00

Nlocal:          343.5 ave         344 max         343 min
Histogram: 1 0 0 0 0 0 0 0 0 1
Nghost:         2474.5 ave        2475 max        2474 min
Histogram: 1 0 0 0 0 0 0 0 0 1
Neighs:        28893.5 ave       29837 max       27950 min
Histogram: 1 0 0 0 0 0 0 0 0 1

Total # of neighbors = 57787
Ave neighs/atom = 84.114993
Neighbor list builds = 0
Dangerous builds = 0
run 0
WARNING: No fixes with time integration, atoms won't move (src/verlet.cpp:60)
Per MPI rank memory allocation (min/avg/max) = 11.08 | 11.08 | 11.08 Mbytes
   Step          Temp          E_pair         E_mol          TotEng         Press     
         0   2.3194503e-19 -5656.8657      0             -5656.8657      6836.4165    
Loop time of 1.375e-06 on 2 procs for 0 steps with 687 atoms

72.7% CPU use with 2 MPI tasks x 1 OpenMP threads

MPI task timing breakdown:
Section |  min time  |  avg time  |  max time  |%varavg| %total
---------------------------------------------------------------
Pair    | 0          | 0          | 0          |   0.0 |  0.00
Neigh   | 0          | 0          | 0          |   0.0 |  0.00
Comm    | 0          | 0          | 0          |   0.0 |  0.00
Output  | 0          | 0          | 0          |   0.0 |  0.00
Modify  | 0          | 0          | 0          |   0.0 |  0.00
Other   |            | 1.375e-06  |            |       |100.00

Nlocal:          343.5 ave         344 max         343 min
Histogram: 1 0 0 0 0 0 0 0 0 1
Nghost:         2474.5 ave        2475 max        2474 min
Histogram: 1 0 0 0 0 0 0 0 0 1
Neighs:        28893.5 ave       29837 max       27950 min
Histogram: 1 0 0 0 0 0 0 0 0 1

Total # of neighbors = 57787
Ave neighs/atom = 84.114993
Neighbor list builds = 0
Dangerous builds = 0
delete_atoms group all
Deleted 687 atoms, new total = 0
read_data ../systems/EAM-EAM-SIA-Fe/image_1.dat add merge
Reading data file ...
  orthogonal box = (0 0 0) to (19.987184 19.987184 19.987184)
  1 by 1 by 2 MPI processor grid
  reading atoms ...
  687 atoms
  reading velocities ...
  687 velocities
  read_data CPU = 0.003 seconds
delete_atoms group all
Deleted 687 atoms, new total = 0
read_data ../systems/EAM-EAM-SIA-Fe/image_2.dat add merge
Reading data file ...
  orthogonal box = (0 0 0) to (19.987184 19.987184 19.987184)
  1 by 1 by 2 MPI processor grid
  reading atoms ...
  687 atoms
  reading velocities ...
  687 velocities
  read_data CPU = 0.003 seconds
delete_atoms group all
Deleted 687 atoms, new total = 0
read_data ../systems/EAM-EAM-SIA-Fe/image_3.dat add merge
Reading data file ...
  orthogonal box = (0 0 0) to (19.987184 19.987184 19.987184)
  1 by 1 by 2 MPI processor grid
  reading atoms ...
  687 atoms
  reading velocities ...
  687 velocities
  read_data CPU = 0.003 seconds
delete_atoms group all
Deleted 687 atoms, new total = 0
read_data ../systems/EAM-EAM-SIA-Fe/image_4.dat add merge
Reading data file ...
  orthogonal box = (0 0 0) to (19.987184 19.987184 19.987184)
  1 by 1 by 2 MPI processor grid
  reading atoms ...
  687 atoms
  reading velocities ...
  687 velocities
  read_data CPU = 0.003 seconds
delete_atoms group all
Deleted 687 atoms, new total = 0
read_data ../systems/EAM-EAM-SIA-Fe/image_5.dat add merge
Reading data file ...
  orthogonal box = (0 0 0) to (19.987184 19.987184 19.987184)
  1 by 1 by 2 MPI processor grid
  reading atoms ...
  687 atoms
  reading velocities ...
  687 velocities
  read_data CPU = 0.003 seconds
delete_atoms group all
Deleted 687 atoms, new total = 0
read_data ../systems/EAM-EAM-SIA-Fe/image_6.dat add merge
Reading data file ...
  orthogonal box = (0 0 0) to (19.987184 19.987184 19.987184)
  1 by 1 by 2 MPI processor grid
  reading atoms ...
  687 atoms
  reading velocities ...
  687 velocities
  read_data CPU = 0.003 seconds
delete_atoms group all
Deleted 687 atoms, new total = 0
read_data ../systems/EAM-EAM-SIA-Fe/image_7.dat add merge
Reading data file ...
  orthogonal box = (0 0 0) to (19.987184 19.987184 19.987184)
  1 by 1 by 2 MPI processor grid
  reading atoms ...
  687 atoms
  reading velocities ...
  687 velocities
  read_data CPU = 0.003 seconds
delete_atoms group all
Deleted 687 atoms, new total = 0
read_data ../systems/EAM-EAM-SIA-Fe/image_8.dat add merge
Reading data file ...
  orthogonal box = (0 0 0) to (19.987184 19.987184 19.987184)
  1 by 1 by 2 MPI processor grid
  reading atoms ...
  687 atoms
  reading velocities ...
  687 velocities
  read_data CPU = 0.003 seconds
delete_atoms group all
Deleted 687 atoms, new total = 0
read_data ../systems/EAM-EAM-SIA-Fe/image_9.dat add merge
Reading data file ...
  orthogonal box = (0 0 0) to (19.987184 19.987184 19.987184)
  1 by 1 by 2 MPI processor grid
  reading atoms ...
  687 atoms
  reading velocities ...
  687 velocities
  read_data CPU = 0.003 seconds
change_box all x scale 1.000000 y scale 1.000000 z scale 1.000000
Changing box ...
  orthogonal box = (0 0 0) to (19.987184 19.987184 19.987184)
  orthogonal box = (0 0 0) to (19.987184 19.987184 19.987184)
  orthogonal box = (0 0 0) to (19.987184 19.987184 19.987184)
run 0
WARNING: No fixes with time integration, atoms won't move (src/verlet.cpp:60)
Per MPI rank memory allocation (min/avg/max) = 11.08 | 11.08 | 11.08 Mbytes
   Step          Temp          E_pair         E_mol          TotEng         Press     
         0   2.3196587e-19 -5656.8657      0             -5656.8657      6836.4165    
Loop time of 6.67e-07 on 2 procs for 0 steps with 687 atoms

149.9% CPU use with 2 MPI tasks x 1 OpenMP threads

MPI task timing breakdown:
Section |  min time  |  avg time  |  max time  |%varavg| %total
---------------------------------------------------------------
Pair    | 0          | 0          | 0          |   0.0 |  0.00
Neigh   | 0          | 0          | 0          |   0.0 |  0.00
Comm    | 0          | 0          | 0          |   0.0 |  0.00
Output  | 0          | 0          | 0          |   0.0 |  0.00
Modify  | 0          | 0          | 0          |   0.0 |  0.00
Other   |            | 6.67e-07   |            |       |100.00

Nlocal:          343.5 ave         363 max         324 min
Histogram: 1 0 0 0 0 0 0 0 0 1
Nghost:         2474.5 ave        2494 max        2455 min
Histogram: 1 0 0 0 0 0 0 0 0 1
Neighs:        28893.5 ave       29477 max       28310 min
Histogram: 1 0 0 0 0 0 0 0 0 1

Total # of neighbors = 57787
Ave neighs/atom = 84.114993
Neighbor list builds = 0
Dangerous builds = 0
fix __pafipath all property/atom d_ux d_uy d_uz d_nx d_ny d_nz d_dnx d_dny d_dnz
run 0
WARNING: No fixes with time integration, atoms won't move (src/verlet.cpp:60)
Per MPI rank memory allocation (min/avg/max) = 11.2 | 11.2 | 11.2 Mbytes
   Step          Temp          E_pair         E_mol          TotEng         Press     
         0   2.3196587e-19 -5656.8657      0             -5656.8657      6836.4165    
Loop time of 3.5854e-05 on 2 procs for 0 steps with 687 atoms

40.4% CPU use with 2 MPI tasks x 1 OpenMP threads

MPI task timing breakdown:
Section |  min time  |  avg time  |  max time  |%varavg| %total
---------------------------------------------------------------
Pair    | 0          | 0          | 0          |   0.0 |  0.00
Neigh   | 0          | 0          | 0          |   0.0 |  0.00
Comm    | 0          | 0          | 0          |   0.0 |  0.00
Output  | 0          | 0          | 0          |   0.0 |  0.00
Modify  | 0          | 0          | 0          |   0.0 |  0.00
Other   |            | 3.585e-05  |            |       |100.00

Nlocal:          343.5 ave         363 max         324 min
Histogram: 1 0 0 0 0 0 0 0 0 1
Nghost:         2474.5 ave        2494 max        2455 min
Histogram: 1 0 0 0 0 0 0 0 0 1
Neighs:        28893.5 ave       29477 max       28310 min
Histogram: 1 0 0 0 0 0 0 0 0 1

Total # of neighbors = 57787
Ave neighs/atom = 84.114993
Neighbor list builds = 0
Dangerous builds = 0
run 0
WARNING: No fixes with time integration, atoms won't move (src/verlet.cpp:60)
Per MPI rank memory allocation (min/avg/max) = 11.2 | 11.2 | 11.2 Mbytes
   Step          Temp          E_pair         E_mol          TotEng         Press     
         0   2.3196587e-19 -5656.8657      0             -5656.8657      6836.4165    
Loop time of 6.25e-07 on 2 procs for 0 steps with 687 atoms

160.0% CPU use with 2 MPI tasks x 1 OpenMP threads

MPI task timing breakdown:
Section |  min time  |  avg time  |  max time  |%varavg| %total
---------------------------------------------------------------
Pair    | 0          | 0          | 0          |   0.0 |  0.00
Neigh   | 0          | 0          | 0          |   0.0 |  0.00
Comm    | 0          | 0          | 0          |   0.0 |  0.00
Output  | 0          | 0          | 0          |   0.0 |  0.00
Modify  | 0          | 0          | 0          |   0.0 |  0.00
Other   |            | 6.25e-07   |            |       |100.00

Nlocal:          343.5 ave         344 max         343 min
Histogram: 1 0 0 0 0 0 0 0 0 1
Nghost:         2474.5 ave        2475 max        2474 min
Histogram: 1 0 0 0 0 0 0 0 0 1
Neighs:        28893.5 ave       29837 max       27950 min
Histogram: 1 0 0 0 0 0 0 0 0 1

Total # of neighbors = 57787
Ave neighs/atom = 84.114993
Neighbor list builds = 0
Dangerous builds = 0
compute __pafipath all property/atom d_ux d_uy d_uz d_nx d_ny d_nz d_dnx d_dny d_dnz
run 0
WARNING: No fixes with time integration, atoms won't move (src/verlet.cpp:60)
Per MPI rank memory allocation (min/avg/max) = 11.2 | 11.2 | 11.2 Mbytes
   Step          Temp          E_pair         E_mol          TotEng         Press     
         0   2.3196587e-19 -5656.8657      0             -5656.8657      6836.4165    
Loop time of 1.208e-06 on 2 procs for 0 steps with 687 atoms

207.0% CPU use with 2 MPI tasks x 1 OpenMP threads

MPI task timing breakdown:
Section |  min time  |  avg time  |  max time  |%varavg| %total
---------------------------------------------------------------
Pair    | 0          | 0          | 0          |   0.0 |  0.00
Neigh   | 0          | 0          | 0          |   0.0 |  0.00
Comm    | 0          | 0          | 0          |   0.0 |  0.00
Output  | 0          | 0          | 0          |   0.0 |  0.00
Modify  | 0          | 0          | 0          |   0.0 |  0.00
Other   |            | 1.208e-06  |            |       |100.00

Nlocal:          343.5 ave         344 max         343 min
Histogram: 1 0 0 0 0 0 0 0 0 1
Nghost:         2474.5 ave        2475 max        2474 min
Histogram: 1 0 0 0 0 0 0 0 0 1
Neighs:        28893.5 ave       29837 max       27950 min
Histogram: 1 0 0 0 0 0 0 0 0 1

Total # of neighbors = 57787
Ave neighs/atom = 84.114993
Neighbor list builds = 0
Dangerous builds = 0
variable l1 equal 1.0-0.000000
variable l2 equal 0.0+0.000000
run 0
WARNING: No fixes with time integration, atoms won't move (src/verlet.cpp:60)
Per MPI rank memory allocation (min/avg/max) = 11.2 | 11.2 | 11.2 Mbytes
   Step          Temp          E_pair         E_mol          TotEng         Press     
         0   2.3196587e-19 -5656.8657      0             -5656.8657      6836.4165    
Loop time of 2.916e-06 on 2 procs for 0 steps with 687 atoms

120.0% CPU use with 2 MPI tasks x 1 OpenMP threads

MPI task timing breakdown:
Section |  min time  |  avg time  |  max time  |%varavg| %total
---------------------------------------------------------------
Pair    | 0          | 0          | 0          |   0.0 |  0.00
Neigh   | 0          | 0          | 0          |   0.0 |  0.00
Comm    | 0          | 0          | 0          |   0.0 |  0.00
Output  | 0          | 0          | 0          |   0.0 |  0.00
Modify  | 0          | 0          | 0          |   0.0 |  0.00
Other   |            | 2.916e-06  |            |       |100.00

Nlocal:          343.5 ave         344 max         343 min
Histogram: 1 0 0 0 0 0 0 0 0 1
Nghost:         2474.5 ave        2475 max        2474 min
Histogram: 1 0 0 0 0 0 0 0 0 1
Neighs:        28893.5 ave       29837 max       27950 min
Histogram: 1 0 0 0 0 0 0 0 0 1

Total # of neighbors = 57787
Ave neighs/atom = 84.114993
Neighbor list builds = 0
Dangerous builds = 0
fix escale1 all adapt 1 pair eam/fs:1 scale * * v_l1
fix escale2 all adapt 1 pair eam/fs:2 scale * * v_l2
run 0
WARNING: No fixes with time integration, atoms won't move (src/verlet.cpp:60)
Per MPI rank memory allocation (min/avg/max) = 11.2 | 11.2 | 11.2 Mbytes
   Step          Temp          E_pair         E_mol          TotEng         Press     
         0   2.3196587e-19 -2828.3785      0             -2828.3785      3828.4068    
Loop time of 1.3955e-06 on 2 procs for 0 steps with 687 atoms

107.5% CPU use with 2 MPI tasks x 1 OpenMP threads

MPI task timing breakdown:
Section |  min time  |  avg time  |  max time  |%varavg| %total
---------------------------------------------------------------
Pair    | 0          | 0          | 0          |   0.0 |  0.00
Neigh   | 0          | 0          | 0          |   0.0 |  0.00
Comm    | 0          | 0          | 0          |   0.0 |  0.00
Output  | 0          | 0          | 0          |   0.0 |  0.00
Modify  | 0          | 0          | 0          |   0.0 |  0.00
Other   |            | 1.396e-06  |            |       |100.00

Nlocal:          343.5 ave         344 max         343 min
Histogram: 1 0 0 0 0 0 0 0 0 1
Nghost:         2474.5 ave        2475 max        2474 min
Histogram: 1 0 0 0 0 0 0 0 0 1
Neighs:        28893.5 ave       29837 max       27950 min
Histogram: 1 0 0 0 0 0 0 0 0 1

Total # of neighbors = 57787
Ave neighs/atom = 84.114993
Neighbor list builds = 0
Dangerous builds = 0
compute V_1 all pair eam/fs 1
compute V_2 all pair eam/fs 2
variable V_1 equal (c_V_1/(0.000001+v_l1))
variable V_2 equal (c_V_2/(0.000001+v_l2))
variable dV equal v_V_2-v_V_1
run 0
WARNING: No fixes with time integration, atoms won't move (src/verlet.cpp:60)
Per MPI rank memory allocation (min/avg/max) = 11.2 | 11.2 | 11.2 Mbytes
   Step          Temp          E_pair         E_mol          TotEng         Press     
         0   2.3196587e-19 -2828.3785      0             -2828.3785      3828.4068    
Loop time of 1.7495e-06 on 2 procs for 0 steps with 687 atoms

85.7% CPU use with 2 MPI tasks x 1 OpenMP threads

MPI task timing breakdown:
Section |  min time  |  avg time  |  max time  |%varavg| %total
---------------------------------------------------------------
Pair    | 0          | 0          | 0          |   0.0 |  0.00
Neigh   | 0          | 0          | 0          |   0.0 |  0.00
Comm    | 0          | 0          | 0          |   0.0 |  0.00
Output  | 0          | 0          | 0          |   0.0 |  0.00
Modify  | 0          | 0          | 0          |   0.0 |  0.00
Other   |            | 1.749e-06  |            |       |100.00

Nlocal:          343.5 ave         344 max         343 min
Histogram: 1 0 0 0 0 0 0 0 0 1
Nghost:         2474.5 ave        2475 max        2474 min
Histogram: 1 0 0 0 0 0 0 0 0 1
Neighs:        28893.5 ave       29837 max       27950 min
Histogram: 1 0 0 0 0 0 0 0 0 1

Total # of neighbors = 57787
Ave neighs/atom = 84.114993
Neighbor list builds = 0
Dangerous builds = 0
change_box all x scale 1.000000 y scale 1.000000 z scale 1.000000
Changing box ...
  orthogonal box = (0 0 0) to (19.987184 19.987184 19.987184)
  orthogonal box = (0 0 0) to (19.987184 19.987184 19.987184)
  orthogonal box = (0 0 0) to (19.987184 19.987184 19.987184)
run 0
WARNING: No fixes with time integration, atoms won't move (src/verlet.cpp:60)
Per MPI rank memory allocation (min/avg/max) = 11.2 | 11.2 | 11.2 Mbytes
   Step          Temp          E_pair         E_mol          TotEng         Press     
         0   2.3196587e-19 -2828.3785      0             -2828.3785      3828.4068    
Loop time of 5.625e-07 on 2 procs for 0 steps with 687 atoms

177.8% CPU use with 2 MPI tasks x 1 OpenMP threads

MPI task timing breakdown:
Section |  min time  |  avg time  |  max time  |%varavg| %total
---------------------------------------------------------------
Pair    | 0          | 0          | 0          |   0.0 |  0.00
Neigh   | 0          | 0          | 0          |   0.0 |  0.00
Comm    | 0          | 0          | 0          |   0.0 |  0.00
Output  | 0          | 0          | 0          |   0.0 |  0.00
Modify  | 0          | 0          | 0          |   0.0 |  0.00
Other   |            | 5.625e-07  |            |       |100.00

Nlocal:          343.5 ave         344 max         343 min
Histogram: 1 0 0 0 0 0 0 0 0 1
Nghost:         2474.5 ave        2475 max        2474 min
Histogram: 1 0 0 0 0 0 0 0 0 1
Neighs:        28893.5 ave       29837 max       27950 min
Histogram: 1 0 0 0 0 0 0 0 0 1

Total # of neighbors = 57787
Ave neighs/atom = 84.114993
Neighbor list builds = 0
Dangerous builds = 0
run 0
WARNING: No fixes with time integration, atoms won't move (src/verlet.cpp:60)
Per MPI rank memory allocation (min/avg/max) = 11.2 | 11.2 | 11.2 Mbytes
   Step          Temp          E_pair         E_mol          TotEng         Press     
         0   2.3196587e-19 -2828.3785      0             -2828.3785      3828.4068    
Loop time of 1.25e-06 on 2 procs for 0 steps with 687 atoms

160.0% CPU use with 2 MPI tasks x 1 OpenMP threads

MPI task timing breakdown:
Section |  min time  |  avg time  |  max time  |%varavg| %total
---------------------------------------------------------------
Pair    | 0          | 0          | 0          |   0.0 |  0.00
Neigh   | 0          | 0          | 0          |   0.0 |  0.00
Comm    | 0          | 0          | 0          |   0.0 |  0.00
Output  | 0          | 0          | 0          |   0.0 |  0.00
Modify  | 0          | 0          | 0          |   0.0 |  0.00
Other   |            | 1.25e-06   |            |       |100.00

Nlocal:          343.5 ave         344 max         343 min
Histogram: 1 0 0 0 0 0 0 0 0 1
Nghost:         2474.5 ave        2475 max        2474 min
Histogram: 1 0 0 0 0 0 0 0 0 1
Neighs:        28893.5 ave       29837 max       27950 min
Histogram: 1 0 0 0 0 0 0 0 0 1

Total # of neighbors = 57787
Ave neighs/atom = 84.114993
Neighbor list builds = 0
Dangerous builds = 0
fix hp all pafi __pafipath 200.000000 0.05 274 overdamped 1 com 1
fix pafi compute name,style: __pafipath,property/atom
run 0

CITE-CITE-CITE-CITE-CITE-CITE-CITE-CITE-CITE-CITE-CITE-CITE-CITE

Your simulation uses code contributions which should be cited:

- citation for fix pafi: doi:10.1103/PhysRevLett.120.135503

@article{SwinburneMarinica2018,
author={T. D. Swinburne and M. C. Marinica},
title={Unsupervised Calculation of Free Energy Barriers in Large
   Crystalline Systems},
journal={Physical Review Letters},
volume={120},
number={13},
pages={135503},
year={2018},
publisher={APS}
}
Recommended to be coupled with PAFI++ code:
https://github.com/tomswinburne/pafi
CITE-CITE-CITE-CITE-CITE-CITE-CITE-CITE-CITE-CITE-CITE-CITE-CITE

Per MPI rank memory allocation (min/avg/max) = 12.7 | 12.7 | 12.7 Mbytes
   Step          Temp          E_pair         E_mol          TotEng         Press     
         0   2.1414174e-19 -2828.3785      0             -2828.3785      3828.4068    
Loop time of 1.1035e-06 on 2 procs for 0 steps with 687 atoms

181.2% CPU use with 2 MPI tasks x 1 OpenMP threads

MPI task timing breakdown:
Section |  min time  |  avg time  |  max time  |%varavg| %total
---------------------------------------------------------------
Pair    | 0          | 0          | 0          |   0.0 |  0.00
Neigh   | 0          | 0          | 0          |   0.0 |  0.00
Comm    | 0          | 0          | 0          |   0.0 |  0.00
Output  | 0          | 0          | 0          |   0.0 |  0.00
Modify  | 0          | 0          | 0          |   0.0 |  0.00
Other   |            | 1.103e-06  |            |       |100.00

Nlocal:          343.5 ave         344 max         343 min
Histogram: 1 0 0 0 0 0 0 0 0 1
Nghost:         2474.5 ave        2475 max        2474 min
Histogram: 1 0 0 0 0 0 0 0 0 1
Neighs:        28893.5 ave       29837 max       27950 min
Histogram: 1 0 0 0 0 0 0 0 0 1

Total # of neighbors = 57787
Ave neighs/atom = 84.114993
Neighbor list builds = 0
Dangerous builds = 0
min_style fire
minimize 0 0.001 10000 10000
Switching to 'neigh_modify every 1 delay 0 check yes' setting during minimization
  Parameters for fire:
    dmax  delaystep dtgrow dtshrink alpha0 alphashrink tmax tmin   integrator   halfstepback   abcfire  
     0.1     20      1.1     0.5     0.25     0.99      10  0.02 eulerimplicit      yes          no     
Per MPI rank memory allocation (min/avg/max) = 12.7 | 12.7 | 12.7 Mbytes
   Step          Temp          E_pair         E_mol          TotEng         Press     
         0   0             -2828.3785      0             -2828.3785      3828.4068    
         1   2.515394e-21  -2828.3785      0             -2828.3785      3828.4068    
Loop time of 0.00310502 on 2 procs for 1 steps with 687 atoms

94.9% CPU use with 2 MPI tasks x 1 OpenMP threads

Minimization stats:
  Stopping criterion = force tolerance
  Energy initial, next-to-last, final = 
     -2828.37851624647  -2828.37851624647  -2828.37851624647
  Force two-norm initial, final = 1.6069165e-09 1.6066965e-09
  Force max component initial, final = 1.8602137e-10 1.8596039e-10
  Final line search alpha, max atom move = 0 0
  Iterations, force evaluations = 1 2

MPI task timing breakdown:
Section |  min time  |  avg time  |  max time  |%varavg| %total
---------------------------------------------------------------
Pair    | 0.0028637  | 0.0029035  | 0.0029433  |   0.1 | 93.51
Neigh   | 0          | 0          | 0          |   0.0 |  0.00
Comm    | 6.6167e-05 | 0.00011325 | 0.00016033 |   0.0 |  3.65
Output  | 0          | 0          | 0          |   0.0 |  0.00
Modify  | 3.7083e-05 | 4.4917e-05 | 5.275e-05  |   0.0 |  1.45
Other   |            | 4.331e-05  |            |       |  1.39

Nlocal:          343.5 ave         344 max         343 min
Histogram: 1 0 0 0 0 0 0 0 0 1
Nghost:         2474.5 ave        2475 max        2474 min
Histogram: 1 0 0 0 0 0 0 0 0 1
Neighs:        28893.5 ave       29837 max       27950 min
Histogram: 1 0 0 0 0 0 0 0 0 1

Total # of neighbors = 57787
Ave neighs/atom = 84.114993
Neighbor list builds = 0
Dangerous builds = 0
run 0
Per MPI rank memory allocation (min/avg/max) = 12.7 | 12.7 | 12.7 Mbytes
   Step          Temp          E_pair         E_mol          TotEng         Press     
         1   2.515394e-21  -2828.3785      0             -2828.3785      3828.4068    
Loop time of 9.75e-06 on 2 procs for 0 steps with 687 atoms

30.8% CPU use with 2 MPI tasks x 1 OpenMP threads

MPI task timing breakdown:
Section |  min time  |  avg time  |  max time  |%varavg| %total
---------------------------------------------------------------
Pair    | 0          | 0          | 0          |   0.0 |  0.00
Neigh   | 0          | 0          | 0          |   0.0 |  0.00
Comm    | 0          | 0          | 0          |   0.0 |  0.00
Output  | 0          | 0          | 0          |   0.0 |  0.00
Modify  | 0          | 0          | 0          |   0.0 |  0.00
Other   |            | 9.75e-06   |            |       |100.00

Nlocal:          343.5 ave         344 max         343 min
Histogram: 1 0 0 0 0 0 0 0 0 1
Nghost:         2474.5 ave        2475 max        2474 min
Histogram: 1 0 0 0 0 0 0 0 0 1
Neighs:        28893.5 ave       29837 max       27950 min
Histogram: 1 0 0 0 0 0 0 0 0 1

Total # of neighbors = 57787
Ave neighs/atom = 84.114993
Neighbor list builds = 0
Dangerous builds = 0
compute pe all pe
variable pe equal pe
run 0
Per MPI rank memory allocation (min/avg/max) = 12.7 | 12.7 | 12.7 Mbytes
   Step          Temp          E_pair         E_mol          TotEng         Press     
         1   2.515394e-21  -2828.3785      0             -2828.3785      3828.4068    
Loop time of 6.455e-07 on 2 procs for 0 steps with 687 atoms

232.4% CPU use with 2 MPI tasks x 1 OpenMP threads

MPI task timing breakdown:
Section |  min time  |  avg time  |  max time  |%varavg| %total
---------------------------------------------------------------
Pair    | 0          | 0          | 0          |   0.0 |  0.00
Neigh   | 0          | 0          | 0          |   0.0 |  0.00
Comm    | 0          | 0          | 0          |   0.0 |  0.00
Output  | 0          | 0          | 0          |   0.0 |  0.00
Modify  | 0          | 0          | 0          |   0.0 |  0.00
Other   |            | 6.455e-07  |            |       |100.00

Nlocal:          343.5 ave         344 max         343 min
Histogram: 1 0 0 0 0 0 0 0 0 1
Nghost:         2474.5 ave        2475 max        2474 min
Histogram: 1 0 0 0 0 0 0 0 0 1
Neighs:        28893.5 ave       29837 max       27950 min
Histogram: 1 0 0 0 0 0 0 0 0 1

Total # of neighbors = 57787
Ave neighs/atom = 84.114993
Neighbor list builds = 0
Dangerous builds = 0
reset_timestep 0
fix ae all ave/time 1 50 100 c_pe
run 100
Per MPI rank memory allocation (min/avg/max) = 12.7 | 12.7 | 12.7 Mbytes
   Step          Temp          E_pair         E_mol          TotEng         Press     
         0   2.515394e-21  -2828.3785      0             -2828.3785      3828.4068    
       100   0             -2809.8155      0             -2809.8155      7864.4701    
Loop time of 0.124224 on 2 procs for 100 steps with 687 atoms

Performance: 69.552 ns/day, 0.345 hours/ns, 804.998 timesteps/s, 553.034 katom-step/s
94.9% CPU use with 2 MPI tasks x 1 OpenMP threads

MPI task timing breakdown:
Section |  min time  |  avg time  |  max time  |%varavg| %total
---------------------------------------------------------------
Pair    | 0.11382    | 0.11429    | 0.11476    |   0.1 | 92.00
Neigh   | 0          | 0          | 0          |   0.0 |  0.00
Comm    | 0.0030209  | 0.0034195  | 0.0038181  |   0.7 |  2.75
Output  | 3.1375e-05 | 3.6833e-05 | 4.2291e-05 |   0.0 |  0.03
Modify  | 0.0061264  | 0.0061807  | 0.006235   |   0.1 |  4.98
Other   |            | 0.000298   |            |       |  0.24

Nlocal:          343.5 ave         344 max         343 min
Histogram: 1 0 0 0 0 0 0 0 0 1
Nghost:         2474.5 ave        2475 max        2474 min
Histogram: 1 0 0 0 0 0 0 0 0 1
Neighs:        28893.5 ave       29837 max       27950 min
Histogram: 1 0 0 0 0 0 0 0 0 1

Total # of neighbors = 57787
Ave neighs/atom = 84.114993
Neighbor list builds = 0
Dangerous builds = 0
unfix ae
run 0
Per MPI rank memory allocation (min/avg/max) = 12.7 | 12.7 | 12.7 Mbytes
   Step          Temp          E_pair         E_mol          TotEng         Press     
       100   0             -2809.8155      0             -2809.8155      7864.4701    
Loop time of 6.045e-07 on 2 procs for 0 steps with 687 atoms

248.1% CPU use with 2 MPI tasks x 1 OpenMP threads

MPI task timing breakdown:
Section |  min time  |  avg time  |  max time  |%varavg| %total
---------------------------------------------------------------
Pair    | 0          | 0          | 0          |   0.0 |  0.00
Neigh   | 0          | 0          | 0          |   0.0 |  0.00
Comm    | 0          | 0          | 0          |   0.0 |  0.00
Output  | 0          | 0          | 0          |   0.0 |  0.00
Modify  | 0          | 0          | 0          |   0.0 |  0.00
Other   |            | 6.045e-07  |            |       |100.00

Nlocal:          343.5 ave         351 max         336 min
Histogram: 1 0 0 0 0 0 0 0 0 1
Nghost:         2474.5 ave        2482 max        2467 min
Histogram: 1 0 0 0 0 0 0 0 0 1
Neighs:        28892.5 ave       30671 max       27114 min
Histogram: 1 0 0 0 0 0 0 0 0 1

Total # of neighbors = 57785
Ave neighs/atom = 84.112082
Neighbor list builds = 0
Dangerous builds = 0
reset_timestep 0
fix ae all ave/time 1 100 100 c_pe
fix af all ave/time 1 100 100 f_hp[1] f_hp[2] f_hp[3] f_hp[4]
fix dV all ave/time 1 100 100 v_dV
run 0
Per MPI rank memory allocation (min/avg/max) = 12.7 | 12.7 | 12.7 Mbytes
   Step          Temp          E_pair         E_mol          TotEng         Press     
         0   0             -2809.8155      0             -2809.8155      7864.4701    
Loop time of 9.375e-07 on 2 procs for 0 steps with 687 atoms

160.0% CPU use with 2 MPI tasks x 1 OpenMP threads

MPI task timing breakdown:
Section |  min time  |  avg time  |  max time  |%varavg| %total
---------------------------------------------------------------
Pair    | 0          | 0          | 0          |   0.0 |  0.00
Neigh   | 0          | 0          | 0          |   0.0 |  0.00
Comm    | 0          | 0          | 0          |   0.0 |  0.00
Output  | 0          | 0          | 0          |   0.0 |  0.00
Modify  | 0          | 0          | 0          |   0.0 |  0.00
Other   |            | 9.375e-07  |            |       |100.00

Nlocal:          343.5 ave         351 max         336 min
Histogram: 1 0 0 0 0 0 0 0 0 1
Nghost:         2474.5 ave        2482 max        2467 min
Histogram: 1 0 0 0 0 0 0 0 0 1
Neighs:        28892.5 ave       30671 max       27114 min
Histogram: 1 0 0 0 0 0 0 0 0 1

Total # of neighbors = 57785
Ave neighs/atom = 84.112082
Neighbor list builds = 0
Dangerous builds = 0
run 100
Per MPI rank memory allocation (min/avg/max) = 12.7 | 12.7 | 12.7 Mbytes
   Step          Temp          E_pair         E_mol          TotEng         Press     
         0   0             -2809.8155      0             -2809.8155      7864.4701    
       100   0             -2809.2463      0             -2809.2463      8295.3416    
Loop time of 0.151402 on 2 procs for 100 steps with 687 atoms

Performance: 57.067 ns/day, 0.421 hours/ns, 660.492 timesteps/s, 453.758 katom-step/s
93.5% CPU use with 2 MPI tasks x 1 OpenMP threads

MPI task timing breakdown:
Section |  min time  |  avg time  |  max time  |%varavg| %total
---------------------------------------------------------------
Pair    | 0.13702    | 0.13862    | 0.14023    |   0.4 | 91.56
Neigh   | 0          | 0          | 0          |   0.0 |  0.00
Comm    | 0.0032741  | 0.0048097  | 0.0063453  |   2.2 |  3.18
Output  | 5.3625e-05 | 6.6167e-05 | 7.8708e-05 |   0.0 |  0.04
Modify  | 0.0074653  | 0.0075458  | 0.0076264  |   0.1 |  4.98
Other   |            | 0.0003592  |            |       |  0.24

Nlocal:          343.5 ave         351 max         336 min
Histogram: 1 0 0 0 0 0 0 0 0 1
Nghost:         2474.5 ave        2482 max        2467 min
Histogram: 1 0 0 0 0 0 0 0 0 1
Neighs:        28892.5 ave       30671 max       27114 min
Histogram: 1 0 0 0 0 0 0 0 0 1

Total # of neighbors = 57785
Ave neighs/atom = 84.112082
Neighbor list builds = 0
Dangerous builds = 0
unfix dV
run 0
Per MPI rank memory allocation (min/avg/max) = 12.7 | 12.7 | 12.7 Mbytes
   Step          Temp          E_pair         E_mol          TotEng         Press     
       100   0             -2809.2463      0             -2809.2463      8295.3416    
Loop time of 6.04e-07 on 2 procs for 0 steps with 687 atoms

827.8% CPU use with 2 MPI tasks x 1 OpenMP threads

MPI task timing breakdown:
Section |  min time  |  avg time  |  max time  |%varavg| %total
---------------------------------------------------------------
Pair    | 0          | 0          | 0          |   0.0 |  0.00
Neigh   | 0          | 0          | 0          |   0.0 |  0.00
Comm    | 0          | 0          | 0          |   0.0 |  0.00
Output  | 0          | 0          | 0          |   0.0 |  0.00
Modify  | 0          | 0          | 0          |   0.0 |  0.00
Other   |            | 6.04e-07   |            |       |100.00

Nlocal:          343.5 ave         351 max         336 min
Histogram: 1 0 0 0 0 0 0 0 0 1
Nghost:         2474.5 ave        2482 max        2467 min
Histogram: 1 0 0 0 0 0 0 0 0 1
Neighs:          28889 ave       30669 max       27109 min
Histogram: 1 0 0 0 0 0 0 0 0 1

Total # of neighbors = 57778
Ave neighs/atom = 84.101892
Neighbor list builds = 0
Dangerous builds = 0
min_style fire
minimize 0 0.001 10000 10000
Switching to 'neigh_modify every 1 delay 0 check yes' setting during minimization
  Parameters for fire:
    dmax  delaystep dtgrow dtshrink alpha0 alphashrink tmax tmin   integrator   halfstepback   abcfire  
     0.1     20      1.1     0.5     0.25     0.99      10  0.02 eulerimplicit      yes          no     
Per MPI rank memory allocation (min/avg/max) = 12.7 | 12.7 | 12.7 Mbytes
   Step          Temp          E_pair         E_mol          TotEng         Press     
       100   0             -2809.2463      0             -2809.2463      8295.3416    
       296   9.0086858e-05 -2828.3785      0             -2828.3785      3828.4416    
Loop time of 0.24509 on 2 procs for 196 steps with 687 atoms

92.4% CPU use with 2 MPI tasks x 1 OpenMP threads

Minimization stats:
  Stopping criterion = force tolerance
  Energy initial, next-to-last, final = 
     -2809.24625368711  -2828.37851542478  -2828.37851587599
  Force two-norm initial, final = 19.104963 0.00071945541
  Force max component initial, final = 1.3546832 9.6403032e-05
  Final line search alpha, max atom move = 0 0
  Iterations, force evaluations = 196 204

MPI task timing breakdown:
Section |  min time  |  avg time  |  max time  |%varavg| %total
---------------------------------------------------------------
Pair    | 0.21871    | 0.22249    | 0.22627    |   0.8 | 90.78
Neigh   | 0          | 0          | 0          |   0.0 |  0.00
Comm    | 0.0057099  | 0.0093023  | 0.012895   |   3.7 |  3.80
Output  | 0          | 0          | 0          |   0.0 |  0.00
Modify  | 0.0050197  | 0.0050439  | 0.005068   |   0.0 |  2.06
Other   |            | 0.008256   |            |       |  3.37

Nlocal:          343.5 ave         351 max         336 min
Histogram: 1 0 0 0 0 0 0 0 0 1
Nghost:         2474.5 ave        2482 max        2467 min
Histogram: 1 0 0 0 0 0 0 0 0 1
Neighs:          28889 ave       30669 max       27109 min
Histogram: 1 0 0 0 0 0 0 0 0 1

Total # of neighbors = 57778
Ave neighs/atom = 84.101892
Neighbor list builds = 0
Dangerous builds = 0
unfix ae
unfix af
unfix hp
variable dV delete
uncompute V_1
uncompute V_2
unfix escale1
unfix escale2
run 0
WARNING: No fixes with time integration, atoms won't move (src/verlet.cpp:60)
Per MPI rank memory allocation (min/avg/max) = 12.33 | 12.33 | 12.33 Mbytes
   Step          Temp          E_pair         E_mol          TotEng         Press     
       296   9.0086858e-05 -2828.3785      0             -2828.3785      3828.4416    
Loop time of 1.2505e-06 on 2 procs for 0 steps with 687 atoms

120.0% CPU use with 2 MPI tasks x 1 OpenMP threads

MPI task timing breakdown:
Section |  min time  |  avg time  |  max time  |%varavg| %total
---------------------------------------------------------------
Pair    | 0          | 0          | 0          |   0.0 |  0.00
Neigh   | 0          | 0          | 0          |   0.0 |  0.00
Comm    | 0          | 0          | 0          |   0.0 |  0.00
Output  | 0          | 0          | 0          |   0.0 |  0.00
Modify  | 0          | 0          | 0          |   0.0 |  0.00
Other   |            | 1.251e-06  |            |       |100.00

Nlocal:          343.5 ave         345 max         342 min
Histogram: 1 0 0 0 0 0 0 0 0 1
Nghost:         2474.5 ave        2476 max        2473 min
Histogram: 1 0 0 0 0 0 0 0 0 1
Neighs:        28893.5 ave       29753 max       28034 min
Histogram: 1 0 0 0 0 0 0 0 0 1

Total # of neighbors = 57787
Ave neighs/atom = 84.114993
Neighbor list builds = 0
Dangerous builds = 0
change_box all x scale 1.000000 y scale 1.000000 z scale 1.000000
Changing box ...
  orthogonal box = (0 0 0) to (19.987184 19.987184 19.987184)
  orthogonal box = (0 0 0) to (19.987184 19.987184 19.987184)
  orthogonal box = (0 0 0) to (19.987184 19.987184 19.987184)
run 0
WARNING: No fixes with time integration, atoms won't move (src/verlet.cpp:60)
Per MPI rank memory allocation (min/avg/max) = 12.33 | 12.33 | 12.33 Mbytes
   Step          Temp          E_pair         E_mol          TotEng         Press     
       296   9.0086858e-05 -2828.3785      0             -2828.3785      3828.4416    
Loop time of 6.045e-07 on 2 procs for 0 steps with 687 atoms

165.4% CPU use with 2 MPI tasks x 1 OpenMP threads

MPI task timing breakdown:
Section |  min time  |  avg time  |  max time  |%varavg| %total
---------------------------------------------------------------
Pair    | 0          | 0          | 0          |   0.0 |  0.00
Neigh   | 0          | 0          | 0          |   0.0 |  0.00
Comm    | 0          | 0          | 0          |   0.0 |  0.00
Output  | 0          | 0          | 0          |   0.0 |  0.00
Modify  | 0          | 0          | 0          |   0.0 |  0.00
Other   |            | 6.045e-07  |            |       |100.00

Nlocal:          343.5 ave         345 max         342 min
Histogram: 1 0 0 0 0 0 0 0 0 1
Nghost:         2474.5 ave        2476 max        2473 min
Histogram: 1 0 0 0 0 0 0 0 0 1
Neighs:        28893.5 ave       29753 max       28034 min
Histogram: 1 0 0 0 0 0 0 0 0 1

Total # of neighbors = 57787
Ave neighs/atom = 84.114993
Neighbor list builds = 0
Dangerous builds = 0
run 0
WARNING: No fixes with time integration, atoms won't move (src/verlet.cpp:60)
Per MPI rank memory allocation (min/avg/max) = 12.33 | 12.33 | 12.33 Mbytes
   Step          Temp          E_pair         E_mol          TotEng         Press     
       296   9.0086858e-05 -2828.3785      0             -2828.3785      3828.4079    
Loop time of 1.354e-06 on 2 procs for 0 steps with 687 atoms

110.8% CPU use with 2 MPI tasks x 1 OpenMP threads

MPI task timing breakdown:
Section |  min time  |  avg time  |  max time  |%varavg| %total
---------------------------------------------------------------
Pair    | 0          | 0          | 0          |   0.0 |  0.00
Neigh   | 0          | 0          | 0          |   0.0 |  0.00
Comm    | 0          | 0          | 0          |   0.0 |  0.00
Output  | 0          | 0          | 0          |   0.0 |  0.00
Modify  | 0          | 0          | 0          |   0.0 |  0.00
Other   |            | 1.354e-06  |            |       |100.00

Nlocal:          343.5 ave         344 max         343 min
Histogram: 1 0 0 0 0 0 0 0 0 1
Nghost:         2474.5 ave        2475 max        2474 min
Histogram: 1 0 0 0 0 0 0 0 0 1
Neighs:        28893.5 ave       29837 max       27950 min
Histogram: 1 0 0 0 0 0 0 0 0 1

Total # of neighbors = 57787
Ave neighs/atom = 84.114993
Neighbor list builds = 0
Dangerous builds = 0
change_box all x scale 1.000000 y scale 1.000000 z scale 1.000000
Changing box ...
  orthogonal box = (0 0 0) to (19.987184 19.987184 19.987184)
  orthogonal box = (0 0 0) to (19.987184 19.987184 19.987184)
  orthogonal box = (0 0 0) to (19.987184 19.987184 19.987184)
run 0
WARNING: No fixes with time integration, atoms won't move (src/verlet.cpp:60)
Per MPI rank memory allocation (min/avg/max) = 12.33 | 12.33 | 12.33 Mbytes
   Step          Temp          E_pair         E_mol          TotEng         Press     
       296   9.0086858e-05 -2828.3785      0             -2828.3785      3828.4079    
Loop time of 1.896e-06 on 2 procs for 0 steps with 687 atoms

131.9% CPU use with 2 MPI tasks x 1 OpenMP threads

MPI task timing breakdown:
Section |  min time  |  avg time  |  max time  |%varavg| %total
---------------------------------------------------------------
Pair    | 0          | 0          | 0          |   0.0 |  0.00
Neigh   | 0          | 0          | 0          |   0.0 |  0.00
Comm    | 0          | 0          | 0          |   0.0 |  0.00
Output  | 0          | 0          | 0          |   0.0 |  0.00
Modify  | 0          | 0          | 0          |   0.0 |  0.00
Other   |            | 1.896e-06  |            |       |100.00

Nlocal:          343.5 ave         344 max         343 min
Histogram: 1 0 0 0 0 0 0 0 0 1
Nghost:         2474.5 ave        2475 max        2474 min
Histogram: 1 0 0 0 0 0 0 0 0 1
Neighs:        28893.5 ave       29837 max       27950 min
Histogram: 1 0 0 0 0 0 0 0 0 1

Total # of neighbors = 57787
Ave neighs/atom = 84.114993
Neighbor list builds = 0
Dangerous builds = 0
run 0
WARNING: No fixes with time integration, atoms won't move (src/verlet.cpp:60)
Per MPI rank memory allocation (min/avg/max) = 12.33 | 12.33 | 12.33 Mbytes
   Step          Temp          E_pair         E_mol          TotEng         Press     
       296   9.0086858e-05 -2828.3785      0             -2828.3785      3828.4079    
Loop time of 1.437e-06 on 2 procs for 0 steps with 687 atoms

104.4% CPU use with 2 MPI tasks x 1 OpenMP threads

MPI task timing breakdown:
Section |  min time  |  avg time  |  max time  |%varavg| %total
---------------------------------------------------------------
Pair    | 0          | 0          | 0          |   0.0 |  0.00
Neigh   | 0          | 0          | 0          |   0.0 |  0.00
Comm    | 0          | 0          | 0          |   0.0 |  0.00
Output  | 0          | 0          | 0          |   0.0 |  0.00
Modify  | 0          | 0          | 0          |   0.0 |  0.00
Other   |            | 1.437e-06  |            |       |100.00

Nlocal:          343.5 ave         344 max         343 min
Histogram: 1 0 0 0 0 0 0 0 0 1
Nghost:         2474.5 ave        2475 max        2474 min
Histogram: 1 0 0 0 0 0 0 0 0 1
Neighs:        28893.5 ave       29837 max       27950 min
Histogram: 1 0 0 0 0 0 0 0 0 1

Total # of neighbors = 57787
Ave neighs/atom = 84.114993
Neighbor list builds = 0
Dangerous builds = 0
variable l1 equal 1.0-0.200000
variable l2 equal 0.0+0.200000
run 0
WARNING: No fixes with time integration, atoms won't move (src/verlet.cpp:60)
Per MPI rank memory allocation (min/avg/max) = 12.33 | 12.33 | 12.33 Mbytes
   Step          Temp          E_pair         E_mol          TotEng         Press     
       296   9.0086858e-05 -2828.3785      0             -2828.3785      3828.4079    
Loop time of 1.021e-06 on 2 procs for 0 steps with 687 atoms

97.9% CPU use with 2 MPI tasks x 1 OpenMP threads

MPI task timing breakdown:
Section |  min time  |  avg time  |  max time  |%varavg| %total
---------------------------------------------------------------
Pair    | 0          | 0          | 0          |   0.0 |  0.00
Neigh   | 0          | 0          | 0          |   0.0 |  0.00
Comm    | 0          | 0          | 0          |   0.0 |  0.00
Output  | 0          | 0          | 0          |   0.0 |  0.00
Modify  | 0          | 0          | 0          |   0.0 |  0.00
Other   |            | 1.021e-06  |            |       |100.00

Nlocal:          343.5 ave         344 max         343 min
Histogram: 1 0 0 0 0 0 0 0 0 1
Nghost:         2474.5 ave        2475 max        2474 min
Histogram: 1 0 0 0 0 0 0 0 0 1
Neighs:        28893.5 ave       29837 max       27950 min
Histogram: 1 0 0 0 0 0 0 0 0 1

Total # of neighbors = 57787
Ave neighs/atom = 84.114993
Neighbor list builds = 0
Dangerous builds = 0
fix escale1 all adapt 1 pair eam/fs:1 scale * * v_l1
fix escale2 all adapt 1 pair eam/fs:2 scale * * v_l2
run 0
WARNING: No fixes with time integration, atoms won't move (src/verlet.cpp:60)
Per MPI rank memory allocation (min/avg/max) = 12.33 | 12.33 | 12.33 Mbytes
   Step          Temp          E_pair         E_mol          TotEng         Press     
       296   9.0086858e-05 -2828.4003      0             -2828.4002      3664.3285    
Loop time of 5.625e-07 on 2 procs for 0 steps with 687 atoms

177.8% CPU use with 2 MPI tasks x 1 OpenMP threads

MPI task timing breakdown:
Section |  min time  |  avg time  |  max time  |%varavg| %total
---------------------------------------------------------------
Pair    | 0          | 0          | 0          |   0.0 |  0.00
Neigh   | 0          | 0          | 0          |   0.0 |  0.00
Comm    | 0          | 0          | 0          |   0.0 |  0.00
Output  | 0          | 0          | 0          |   0.0 |  0.00
Modify  | 0          | 0          | 0          |   0.0 |  0.00
Other   |            | 5.625e-07  |            |       |100.00

Nlocal:          343.5 ave         344 max         343 min
Histogram: 1 0 0 0 0 0 0 0 0 1
Nghost:         2474.5 ave        2475 max        2474 min
Histogram: 1 0 0 0 0 0 0 0 0 1
Neighs:        28893.5 ave       29837 max       27950 min
Histogram: 1 0 0 0 0 0 0 0 0 1

Total # of neighbors = 57787
Ave neighs/atom = 84.114993
Neighbor list builds = 0
Dangerous builds = 0
compute V_1 all pair eam/fs 1
compute V_2 all pair eam/fs 2
variable V_1 equal (c_V_1/(0.000001+v_l1))
variable V_2 equal (c_V_2/(0.000001+v_l2))
variable dV equal v_V_2-v_V_1
run 0
WARNING: No fixes with time integration, atoms won't move (src/verlet.cpp:60)
Per MPI rank memory allocation (min/avg/max) = 12.33 | 12.33 | 12.33 Mbytes
   Step          Temp          E_pair         E_mol          TotEng         Press     
       296   9.0086858e-05 -2828.4003      0             -2828.4002      3664.3285    
Loop time of 1.416e-06 on 2 procs for 0 steps with 687 atoms

70.6% CPU use with 2 MPI tasks x 1 OpenMP threads

MPI task timing breakdown:
Section |  min time  |  avg time  |  max time  |%varavg| %total
---------------------------------------------------------------
Pair    | 0          | 0          | 0          |   0.0 |  0.00
Neigh   | 0          | 0          | 0          |   0.0 |  0.00
Comm    | 0          | 0          | 0          |   0.0 |  0.00
Output  | 0          | 0          | 0          |   0.0 |  0.00
Modify  | 0          | 0          | 0          |   0.0 |  0.00
Other   |            | 1.416e-06  |            |       |100.00

Nlocal:          343.5 ave         344 max         343 min
Histogram: 1 0 0 0 0 0 0 0 0 1
Nghost:         2474.5 ave        2475 max        2474 min
Histogram: 1 0 0 0 0 0 0 0 0 1
Neighs:        28893.5 ave       29837 max       27950 min
Histogram: 1 0 0 0 0 0 0 0 0 1

Total # of neighbors = 57787
Ave neighs/atom = 84.114993
Neighbor list builds = 0
Dangerous builds = 0
change_box all x scale 1.000000 y scale 1.000000 z scale 1.000000
Changing box ...
  orthogonal box = (0 0 0) to (19.987184 19.987184 19.987184)
  orthogonal box = (0 0 0) to (19.987184 19.987184 19.987184)
  orthogonal box = (0 0 0) to (19.987184 19.987184 19.987184)
run 0
WARNING: No fixes with time integration, atoms won't move (src/verlet.cpp:60)
Per MPI rank memory allocation (min/avg/max) = 12.33 | 12.33 | 12.33 Mbytes
   Step          Temp          E_pair         E_mol          TotEng         Press     
       296   9.0086858e-05 -2828.4003      0             -2828.4002      3664.3285    
Loop time of 1.291e-06 on 2 procs for 0 steps with 687 atoms

77.5% CPU use with 2 MPI tasks x 1 OpenMP threads

MPI task timing breakdown:
Section |  min time  |  avg time  |  max time  |%varavg| %total
---------------------------------------------------------------
Pair    | 0          | 0          | 0          |   0.0 |  0.00
Neigh   | 0          | 0          | 0          |   0.0 |  0.00
Comm    | 0          | 0          | 0          |   0.0 |  0.00
Output  | 0          | 0          | 0          |   0.0 |  0.00
Modify  | 0          | 0          | 0          |   0.0 |  0.00
Other   |            | 1.291e-06  |            |       |100.00

Nlocal:          343.5 ave         344 max         343 min
Histogram: 1 0 0 0 0 0 0 0 0 1
Nghost:         2474.5 ave        2475 max        2474 min
Histogram: 1 0 0 0 0 0 0 0 0 1
Neighs:        28893.5 ave       29837 max       27950 min
Histogram: 1 0 0 0 0 0 0 0 0 1

Total # of neighbors = 57787
Ave neighs/atom = 84.114993
Neighbor list builds = 0
Dangerous builds = 0
run 0
WARNING: No fixes with time integration, atoms won't move (src/verlet.cpp:60)
Per MPI rank memory allocation (min/avg/max) = 12.33 | 12.33 | 12.33 Mbytes
   Step          Temp          E_pair         E_mol          TotEng         Press     
       296   9.0086858e-05 -2828.4003      0             -2828.4002      3664.3285    
Loop time of 1.417e-06 on 2 procs for 0 steps with 687 atoms

141.1% CPU use with 2 MPI tasks x 1 OpenMP threads

MPI task timing breakdown:
Section |  min time  |  avg time  |  max time  |%varavg| %total
---------------------------------------------------------------
Pair    | 0          | 0          | 0          |   0.0 |  0.00
Neigh   | 0          | 0          | 0          |   0.0 |  0.00
Comm    | 0          | 0          | 0          |   0.0 |  0.00
Output  | 0          | 0          | 0          |   0.0 |  0.00
Modify  | 0          | 0          | 0          |   0.0 |  0.00
Other   |            | 1.417e-06  |            |       |100.00

Nlocal:          343.5 ave         344 max         343 min
Histogram: 1 0 0 0 0 0 0 0 0 1
Nghost:         2474.5 ave        2475 max        2474 min
Histogram: 1 0 0 0 0 0 0 0 0 1
Neighs:        28893.5 ave       29837 max       27950 min
Histogram: 1 0 0 0 0 0 0 0 0 1

Total # of neighbors = 57787
Ave neighs/atom = 84.114993
Neighbor list builds = 0
Dangerous builds = 0
fix hp all pafi __pafipath 200.000000 0.05 274 overdamped 1 com 1
fix pafi compute name,style: __pafipath,property/atom
run 0
Per MPI rank memory allocation (min/avg/max) = 12.7 | 12.7 | 12.7 Mbytes
   Step          Temp          E_pair         E_mol          TotEng         Press     
       296   9.0086858e-05 -2828.4003      0             -2828.4002      3664.3285    
Loop time of 1.542e-06 on 2 procs for 0 steps with 687 atoms

129.7% CPU use with 2 MPI tasks x 1 OpenMP threads

MPI task timing breakdown:
Section |  min time  |  avg time  |  max time  |%varavg| %total
---------------------------------------------------------------
Pair    | 0          | 0          | 0          |   0.0 |  0.00
Neigh   | 0          | 0          | 0          |   0.0 |  0.00
Comm    | 0          | 0          | 0          |   0.0 |  0.00
Output  | 0          | 0          | 0          |   0.0 |  0.00
Modify  | 0          | 0          | 0          |   0.0 |  0.00
Other   |            | 1.542e-06  |            |       |100.00

Nlocal:          343.5 ave         344 max         343 min
Histogram: 1 0 0 0 0 0 0 0 0 1
Nghost:         2474.5 ave        2475 max        2474 min
Histogram: 1 0 0 0 0 0 0 0 0 1
Neighs:        28893.5 ave       29837 max       27950 min
Histogram: 1 0 0 0 0 0 0 0 0 1

Total # of neighbors = 57787
Ave neighs/atom = 84.114993
Neighbor list builds = 0
Dangerous builds = 0
min_style fire
minimize 0 0.001 10000 10000
Switching to 'neigh_modify every 1 delay 0 check yes' setting during minimization
  Parameters for fire:
    dmax  delaystep dtgrow dtshrink alpha0 alphashrink tmax tmin   integrator   halfstepback   abcfire  
     0.1     20      1.1     0.5     0.25     0.99      10  0.02 eulerimplicit      yes          no     
Per MPI rank memory allocation (min/avg/max) = 12.7 | 12.7 | 12.7 Mbytes
   Step          Temp          E_pair         E_mol          TotEng         Press     
       296   0             -2828.4003      0             -2828.4003      3664.3274    
       366   0.00026114902 -2828.4034      0             -2828.4034      3735.038     
Loop time of 0.0786434 on 2 procs for 70 steps with 687 atoms

93.4% CPU use with 2 MPI tasks x 1 OpenMP threads

Minimization stats:
  Stopping criterion = force tolerance
  Energy initial, next-to-last, final = 
     -2828.40025461217  -2828.40340917507  -2828.40340984665
  Force two-norm initial, final = 0.25252822 0.00098687332
  Force max component initial, final = 0.074074861 9.0410122e-05
  Final line search alpha, max atom move = 0 0
  Iterations, force evaluations = 70 72

MPI task timing breakdown:
Section |  min time  |  avg time  |  max time  |%varavg| %total
---------------------------------------------------------------
Pair    | 0.070757   | 0.07141    | 0.072063   |   0.2 | 90.80
Neigh   | 0          | 0          | 0          |   0.0 |  0.00
Comm    | 0.001899   | 0.0025012  | 0.0031035  |   1.2 |  3.18
Output  | 0          | 0          | 0          |   0.0 |  0.00
Modify  | 0.0016185  | 0.0016397  | 0.0016608  |   0.1 |  2.08
Other   |            | 0.003093   |            |       |  3.93

Nlocal:          343.5 ave         344 max         343 min
Histogram: 1 0 0 0 0 0 0 0 0 1
Nghost:         2474.5 ave        2475 max        2474 min
Histogram: 1 0 0 0 0 0 0 0 0 1
Neighs:        28893.5 ave       29837 max       27950 min
Histogram: 1 0 0 0 0 0 0 0 0 1

Total # of neighbors = 57787
Ave neighs/atom = 84.114993
Neighbor list builds = 0
Dangerous builds = 0
run 0
Per MPI rank memory allocation (min/avg/max) = 12.7 | 12.7 | 12.7 Mbytes
   Step          Temp          E_pair         E_mol          TotEng         Press     
       366   0.00026114902 -2828.4034      0             -2828.4034      3735.038     
Loop time of 1.2085e-06 on 2 procs for 0 steps with 687 atoms

206.9% CPU use with 2 MPI tasks x 1 OpenMP threads

MPI task timing breakdown:
Section |  min time  |  avg time  |  max time  |%varavg| %total
---------------------------------------------------------------
Pair    | 0          | 0          | 0          |   0.0 |  0.00
Neigh   | 0          | 0          | 0          |   0.0 |  0.00
Comm    | 0          | 0          | 0          |   0.0 |  0.00
Output  | 0          | 0          | 0          |   0.0 |  0.00
Modify  | 0          | 0          | 0          |   0.0 |  0.00
Other   |            | 1.209e-06  |            |       |100.00

Nlocal:          343.5 ave         345 max         342 min
Histogram: 1 0 0 0 0 0 0 0 0 1
Nghost:         2474.5 ave        2476 max        2473 min
Histogram: 1 0 0 0 0 0 0 0 0 1
Neighs:        28893.5 ave       30011 max       27776 min
Histogram: 1 0 0 0 0 0 0 0 0 1

Total # of neighbors = 57787
Ave neighs/atom = 84.114993
Neighbor list builds = 0
Dangerous builds = 0
reset_timestep 0
fix ae all ave/time 1 50 100 c_pe
run 100
Per MPI rank memory allocation (min/avg/max) = 12.7 | 12.7 | 12.7 Mbytes
   Step          Temp          E_pair         E_mol          TotEng         Press     
         0   0.00026114902 -2828.4034      0             -2828.4034      3735.038     
       100   0             -2809.8345      0             -2809.8345      7180.7752    
Loop time of 0.124633 on 2 procs for 100 steps with 687 atoms

Performance: 69.324 ns/day, 0.346 hours/ns, 802.359 timesteps/s, 551.220 katom-step/s
94.6% CPU use with 2 MPI tasks x 1 OpenMP threads

MPI task timing breakdown:
Section |  min time  |  avg time  |  max time  |%varavg| %total
---------------------------------------------------------------
Pair    | 0.11366    | 0.11463    | 0.11561    |   0.3 | 91.98
Neigh   | 0          | 0          | 0          |   0.0 |  0.00
Comm    | 0.0028015  | 0.0036999  | 0.0045984  |   1.5 |  2.97
Output  | 9.791e-06  | 1.1833e-05 | 1.3875e-05 |   0.0 |  0.01
Modify  | 0.0059214  | 0.0060112  | 0.006101   |   0.1 |  4.82
Other   |            | 0.000275   |            |       |  0.22

Nlocal:          343.5 ave         345 max         342 min
Histogram: 1 0 0 0 0 0 0 0 0 1
Nghost:         2474.5 ave        2476 max        2473 min
Histogram: 1 0 0 0 0 0 0 0 0 1
Neighs:        28893.5 ave       30011 max       27776 min
Histogram: 1 0 0 0 0 0 0 0 0 1

Total # of neighbors = 57787
Ave neighs/atom = 84.114993
Neighbor list builds = 0
Dangerous builds = 0
unfix ae
run 0
Per MPI rank memory allocation (min/avg/max) = 12.7 | 12.7 | 12.7 Mbytes
   Step          Temp          E_pair         E_mol          TotEng         Press     
       100   0             -2809.8345      0             -2809.8345      7180.7752    
Loop time of 1.271e-06 on 2 procs for 0 steps with 687 atoms

118.0% CPU use with 2 MPI tasks x 1 OpenMP threads

MPI task timing breakdown:
Section |  min time  |  avg time  |  max time  |%varavg| %total
---------------------------------------------------------------
Pair    | 0          | 0          | 0          |   0.0 |  0.00
Neigh   | 0          | 0          | 0          |   0.0 |  0.00
Comm    | 0          | 0          | 0          |   0.0 |  0.00
Output  | 0          | 0          | 0          |   0.0 |  0.00
Modify  | 0          | 0          | 0          |   0.0 |  0.00
Other   |            | 1.271e-06  |            |       |100.00

Nlocal:          343.5 ave         344 max         343 min
Histogram: 1 0 0 0 0 0 0 0 0 1
Nghost:         2474.5 ave        2475 max        2474 min
Histogram: 1 0 0 0 0 0 0 0 0 1
Neighs:          28895 ave       30023 max       27767 min
Histogram: 1 0 0 0 0 0 0 0 0 1

Total # of neighbors = 57790
Ave neighs/atom = 84.11936
Neighbor list builds = 0
Dangerous builds = 0
reset_timestep 0
fix ae all ave/time 1 100 100 c_pe
fix af all ave/time 1 100 100 f_hp[1] f_hp[2] f_hp[3] f_hp[4]
fix dV all ave/time 1 100 100 v_dV
run 0
Per MPI rank memory allocation (min/avg/max) = 12.7 | 12.7 | 12.7 Mbytes
   Step          Temp          E_pair         E_mol          TotEng         Press     
         0   0             -2809.8345      0             -2809.8345      7180.7752    
Loop time of 1.1255e-06 on 2 procs for 0 steps with 687 atoms

177.7% CPU use with 2 MPI tasks x 1 OpenMP threads

MPI task timing breakdown:
Section |  min time  |  avg time  |  max time  |%varavg| %total
---------------------------------------------------------------
Pair    | 0          | 0          | 0          |   0.0 |  0.00
Neigh   | 0          | 0          | 0          |   0.0 |  0.00
Comm    | 0          | 0          | 0          |   0.0 |  0.00
Output  | 0          | 0          | 0          |   0.0 |  0.00
Modify  | 0          | 0          | 0          |   0.0 |  0.00
Other   |            | 1.125e-06  |            |       |100.00

Nlocal:          343.5 ave         344 max         343 min
Histogram: 1 0 0 0 0 0 0 0 0 1
Nghost:         2474.5 ave        2475 max        2474 min
Histogram: 1 0 0 0 0 0 0 0 0 1
Neighs:          28895 ave       30023 max       27767 min
Histogram: 1 0 0 0 0 0 0 0 0 1

Total # of neighbors = 57790
Ave neighs/atom = 84.11936
Neighbor list builds = 0
Dangerous builds = 0
run 100
Per MPI rank memory allocation (min/avg/max) = 12.7 | 12.7 | 12.7 Mbytes
   Step          Temp          E_pair         E_mol          TotEng         Press     
         0   0             -2809.8345      0             -2809.8345      7180.7752    
       100   0             -2808.6921      0             -2808.6921      7226.6399    
Loop time of 0.155974 on 2 procs for 100 steps with 687 atoms

Performance: 55.394 ns/day, 0.433 hours/ns, 641.134 timesteps/s, 440.459 katom-step/s
94.1% CPU use with 2 MPI tasks x 1 OpenMP threads

MPI task timing breakdown:
Section |  min time  |  avg time  |  max time  |%varavg| %total
---------------------------------------------------------------
Pair    | 0.14238    | 0.14299    | 0.1436     |   0.2 | 91.68
Neigh   | 0          | 0          | 0          |   0.0 |  0.00
Comm    | 0.0038033  | 0.0044997  | 0.0051961  |   1.0 |  2.88
Output  | 3.875e-05  | 3.9208e-05 | 3.9666e-05 |   0.0 |  0.03
Modify  | 0.0080363  | 0.0080537  | 0.008071   |   0.0 |  5.16
Other   |            | 0.0003912  |            |       |  0.25

Nlocal:          343.5 ave         344 max         343 min
Histogram: 1 0 0 0 0 0 0 0 0 1
Nghost:         2474.5 ave        2475 max        2474 min
Histogram: 1 0 0 0 0 0 0 0 0 1
Neighs:          28895 ave       30023 max       27767 min
Histogram: 1 0 0 0 0 0 0 0 0 1

Total # of neighbors = 57790
Ave neighs/atom = 84.11936
Neighbor list builds = 0
Dangerous builds = 0
unfix dV
run 0
Per MPI rank memory allocation (min/avg/max) = 12.7 | 12.7 | 12.7 Mbytes
   Step          Temp          E_pair         E_mol          TotEng         Press     
       100   0             -2808.6921      0             -2808.6921      7226.6399    
Loop time of 8.146e-06 on 2 procs for 0 steps with 687 atoms

24.6% CPU use with 2 MPI tasks x 1 OpenMP threads

MPI task timing breakdown:
Section |  min time  |  avg time  |  max time  |%varavg| %total
---------------------------------------------------------------
Pair    | 0          | 0          | 0          |   0.0 |  0.00
Neigh   | 0          | 0          | 0          |   0.0 |  0.00
Comm    | 0          | 0          | 0          |   0.0 |  0.00
Output  | 0          | 0          | 0          |   0.0 |  0.00
Modify  | 0          | 0          | 0          |   0.0 |  0.00
Other   |            | 8.146e-06  |            |       |100.00

Nlocal:          343.5 ave         345 max         342 min
Histogram: 1 0 0 0 0 0 0 0 0 1
Nghost:         2474.5 ave        2476 max        2473 min
Histogram: 1 0 0 0 0 0 0 0 0 1
Neighs:          28894 ave       29889 max       27899 min
Histogram: 1 0 0 0 0 0 0 0 0 1

Total # of neighbors = 57788
Ave neighs/atom = 84.116448
Neighbor list builds = 0
Dangerous builds = 0
min_style fire
minimize 0 0.001 10000 10000
Switching to 'neigh_modify every 1 delay 0 check yes' setting during minimization
  Parameters for fire:
    dmax  delaystep dtgrow dtshrink alpha0 alphashrink tmax tmin   integrator   halfstepback   abcfire  
     0.1     20      1.1     0.5     0.25     0.99      10  0.02 eulerimplicit      yes          no     
Per MPI rank memory allocation (min/avg/max) = 12.7 | 12.7 | 12.7 Mbytes
   Step          Temp          E_pair         E_mol          TotEng         Press     
       100   0             -2808.6921      0             -2808.6921      7226.6399    
       258   2.0793855e-08 -2828.4034      0             -2828.4034      3735.3128    
Loop time of 0.190589 on 2 procs for 158 steps with 687 atoms

94.4% CPU use with 2 MPI tasks x 1 OpenMP threads

Minimization stats:
  Stopping criterion = force tolerance
  Energy initial, next-to-last, final = 
     -2808.69208722256  -2828.40340990921  -2828.40340991122
  Force two-norm initial, final = 19.584118 0.00099312611
  Force max component initial, final = 1.4746202 0.00025890586
  Final line search alpha, max atom move = 0 0
  Iterations, force evaluations = 158 166

MPI task timing breakdown:
Section |  min time  |  avg time  |  max time  |%varavg| %total
---------------------------------------------------------------
Pair    | 0.17486    | 0.17696    | 0.17907    |   0.5 | 92.85
Neigh   | 0          | 0          | 0          |   0.0 |  0.00
Comm    | 0.0040182  | 0.0059508  | 0.0078833  |   2.5 |  3.12
Output  | 0          | 0          | 0          |   0.0 |  0.00
Modify  | 0.0030821  | 0.0031548  | 0.0032274  |   0.1 |  1.66
Other   |            | 0.00452    |            |       |  2.37

Nlocal:          343.5 ave         345 max         342 min
Histogram: 1 0 0 0 0 0 0 0 0 1
Nghost:         2474.5 ave        2476 max        2473 min
Histogram: 1 0 0 0 0 0 0 0 0 1
Neighs:          28894 ave       29889 max       27899 min
Histogram: 1 0 0 0 0 0 0 0 0 1

Total # of neighbors = 57788
Ave neighs/atom = 84.116448
Neighbor list builds = 0
Dangerous builds = 0
unfix ae
unfix af
unfix hp
variable dV delete
uncompute V_1
uncompute V_2
unfix escale1
unfix escale2
run 0
WARNING: No fixes with time integration, atoms won't move (src/verlet.cpp:60)
Per MPI rank memory allocation (min/avg/max) = 12.33 | 12.33 | 12.33 Mbytes
   Step          Temp          E_pair         E_mol          TotEng         Press     
       258   2.0793855e-08 -2828.4034      0             -2828.4034      3735.3128    
Loop time of 1.021e-06 on 2 procs for 0 steps with 687 atoms

49.0% CPU use with 2 MPI tasks x 1 OpenMP threads

MPI task timing breakdown:
Section |  min time  |  avg time  |  max time  |%varavg| %total
---------------------------------------------------------------
Pair    | 0          | 0          | 0          |   0.0 |  0.00
Neigh   | 0          | 0          | 0          |   0.0 |  0.00
Comm    | 0          | 0          | 0          |   0.0 |  0.00
Output  | 0          | 0          | 0          |   0.0 |  0.00
Modify  | 0          | 0          | 0          |   0.0 |  0.00
Other   |            | 1.021e-06  |            |       |100.00

Nlocal:          343.5 ave         344 max         343 min
Histogram: 1 0 0 0 0 0 0 0 0 1
Nghost:         2474.5 ave        2475 max        2474 min
Histogram: 1 0 0 0 0 0 0 0 0 1
Neighs:        28893.5 ave       29841 max       27946 min
Histogram: 1 0 0 0 0 0 0 0 0 1

Total # of neighbors = 57787
Ave neighs/atom = 84.114993
Neighbor list builds = 0
Dangerous builds = 0
change_box all x scale 1.000000 y scale 1.000000 z scale 1.000000
Changing box ...
  orthogonal box = (0 0 0) to (19.987184 19.987184 19.987184)
  orthogonal box = (0 0 0) to (19.987184 19.987184 19.987184)
  orthogonal box = (0 0 0) to (19.987184 19.987184 19.987184)
run 0
WARNING: No fixes with time integration, atoms won't move (src/verlet.cpp:60)
Per MPI rank memory allocation (min/avg/max) = 12.33 | 12.33 | 12.33 Mbytes
   Step          Temp          E_pair         E_mol          TotEng         Press     
       258   2.0793855e-08 -2828.4034      0             -2828.4034      3735.3128    
Loop time of 2.65e-05 on 2 procs for 0 steps with 687 atoms

30.2% CPU use with 2 MPI tasks x 1 OpenMP threads

MPI task timing breakdown:
Section |  min time  |  avg time  |  max time  |%varavg| %total
---------------------------------------------------------------
Pair    | 0          | 0          | 0          |   0.0 |  0.00
Neigh   | 0          | 0          | 0          |   0.0 |  0.00
Comm    | 0          | 0          | 0          |   0.0 |  0.00
Output  | 0          | 0          | 0          |   0.0 |  0.00
Modify  | 0          | 0          | 0          |   0.0 |  0.00
Other   |            | 2.65e-05   |            |       |100.00

Nlocal:          343.5 ave         344 max         343 min
Histogram: 1 0 0 0 0 0 0 0 0 1
Nghost:         2474.5 ave        2475 max        2474 min
Histogram: 1 0 0 0 0 0 0 0 0 1
Neighs:        28893.5 ave       29841 max       27946 min
Histogram: 1 0 0 0 0 0 0 0 0 1

Total # of neighbors = 57787
Ave neighs/atom = 84.114993
Neighbor list builds = 0
Dangerous builds = 0
run 0
WARNING: No fixes with time integration, atoms won't move (src/verlet.cpp:60)
Per MPI rank memory allocation (min/avg/max) = 12.33 | 12.33 | 12.33 Mbytes
   Step          Temp          E_pair         E_mol          TotEng         Press     
       258   2.0793855e-08 -2828.4003      0             -2828.4003      3664.3274    
Loop time of 1.70835e-05 on 2 procs for 0 steps with 687 atoms

61.5% CPU use with 2 MPI tasks x 1 OpenMP threads

MPI task timing breakdown:
Section |  min time  |  avg time  |  max time  |%varavg| %total
---------------------------------------------------------------
Pair    | 0          | 0          | 0          |   0.0 |  0.00
Neigh   | 0          | 0          | 0          |   0.0 |  0.00
Comm    | 0          | 0          | 0          |   0.0 |  0.00
Output  | 0          | 0          | 0          |   0.0 |  0.00
Modify  | 0          | 0          | 0          |   0.0 |  0.00
Other   |            | 1.708e-05  |            |       |100.00

Nlocal:          343.5 ave         344 max         343 min
Histogram: 1 0 0 0 0 0 0 0 0 1
Nghost:         2474.5 ave        2475 max        2474 min
Histogram: 1 0 0 0 0 0 0 0 0 1
Neighs:        28893.5 ave       29837 max       27950 min
Histogram: 1 0 0 0 0 0 0 0 0 1

Total # of neighbors = 57787
Ave neighs/atom = 84.114993
Neighbor list builds = 0
Dangerous builds = 0
change_box all x scale 1.000000 y scale 1.000000 z scale 1.000000
Changing box ...
  orthogonal box = (0 0 0) to (19.987184 19.987184 19.987184)
  orthogonal box = (0 0 0) to (19.987184 19.987184 19.987184)
  orthogonal box = (0 0 0) to (19.987184 19.987184 19.987184)
run 0
WARNING: No fixes with time integration, atoms won't move (src/verlet.cpp:60)
Per MPI rank memory allocation (min/avg/max) = 12.33 | 12.33 | 12.33 Mbytes
   Step          Temp          E_pair         E_mol          TotEng         Press     
       258   2.0793855e-08 -2828.4003      0             -2828.4003      3664.3274    
Loop time of 6.67e-07 on 2 procs for 0 steps with 687 atoms

224.9% CPU use with 2 MPI tasks x 1 OpenMP threads

MPI task timing breakdown:
Section |  min time  |  avg time  |  max time  |%varavg| %total
---------------------------------------------------------------
Pair    | 0          | 0          | 0          |   0.0 |  0.00
Neigh   | 0          | 0          | 0          |   0.0 |  0.00
Comm    | 0          | 0          | 0          |   0.0 |  0.00
Output  | 0          | 0          | 0          |   0.0 |  0.00
Modify  | 0          | 0          | 0          |   0.0 |  0.00
Other   |            | 6.67e-07   |            |       |100.00

Nlocal:          343.5 ave         344 max         343 min
Histogram: 1 0 0 0 0 0 0 0 0 1
Nghost:         2474.5 ave        2475 max        2474 min
Histogram: 1 0 0 0 0 0 0 0 0 1
Neighs:        28893.5 ave       29837 max       27950 min
Histogram: 1 0 0 0 0 0 0 0 0 1

Total # of neighbors = 57787
Ave neighs/atom = 84.114993
Neighbor list builds = 0
Dangerous builds = 0
run 0
WARNING: No fixes with time integration, atoms won't move (src/verlet.cpp:60)
Per MPI rank memory allocation (min/avg/max) = 12.33 | 12.33 | 12.33 Mbytes
   Step          Temp          E_pair         E_mol          TotEng         Press     
       258   2.0793855e-08 -2828.4003      0             -2828.4003      3664.3274    
Loop time of 6.245e-07 on 2 procs for 0 steps with 687 atoms

160.1% CPU use with 2 MPI tasks x 1 OpenMP threads

MPI task timing breakdown:
Section |  min time  |  avg time  |  max time  |%varavg| %total
---------------------------------------------------------------
Pair    | 0          | 0          | 0          |   0.0 |  0.00
Neigh   | 0          | 0          | 0          |   0.0 |  0.00
Comm    | 0          | 0          | 0          |   0.0 |  0.00
Output  | 0          | 0          | 0          |   0.0 |  0.00
Modify  | 0          | 0          | 0          |   0.0 |  0.00
Other   |            | 6.245e-07  |            |       |100.00

Nlocal:          343.5 ave         344 max         343 min
Histogram: 1 0 0 0 0 0 0 0 0 1
Nghost:         2474.5 ave        2475 max        2474 min
Histogram: 1 0 0 0 0 0 0 0 0 1
Neighs:        28893.5 ave       29837 max       27950 min
Histogram: 1 0 0 0 0 0 0 0 0 1

Total # of neighbors = 57787
Ave neighs/atom = 84.114993
Neighbor list builds = 0
Dangerous builds = 0
variable l1 equal 1.0-0.400000
variable l2 equal 0.0+0.400000
run 0
WARNING: No fixes with time integration, atoms won't move (src/verlet.cpp:60)
Per MPI rank memory allocation (min/avg/max) = 12.33 | 12.33 | 12.33 Mbytes
   Step          Temp          E_pair         E_mol          TotEng         Press     
       258   2.0793855e-08 -2828.4003      0             -2828.4003      3664.3274    
Loop time of 1.417e-06 on 2 procs for 0 steps with 687 atoms

141.1% CPU use with 2 MPI tasks x 1 OpenMP threads

MPI task timing breakdown:
Section |  min time  |  avg time  |  max time  |%varavg| %total
---------------------------------------------------------------
Pair    | 0          | 0          | 0          |   0.0 |  0.00
Neigh   | 0          | 0          | 0          |   0.0 |  0.00
Comm    | 0          | 0          | 0          |   0.0 |  0.00
Output  | 0          | 0          | 0          |   0.0 |  0.00
Modify  | 0          | 0          | 0          |   0.0 |  0.00
Other   |            | 1.417e-06  |            |       |100.00

Nlocal:          343.5 ave         344 max         343 min
Histogram: 1 0 0 0 0 0 0 0 0 1
Nghost:         2474.5 ave        2475 max        2474 min
Histogram: 1 0 0 0 0 0 0 0 0 1
Neighs:        28893.5 ave       29837 max       27950 min
Histogram: 1 0 0 0 0 0 0 0 0 1

Total # of neighbors = 57787
Ave neighs/atom = 84.114993
Neighbor list builds = 0
Dangerous builds = 0
fix escale1 all adapt 1 pair eam/fs:1 scale * * v_l1
fix escale2 all adapt 1 pair eam/fs:2 scale * * v_l2
run 0
WARNING: No fixes with time integration, atoms won't move (src/verlet.cpp:60)
Per MPI rank memory allocation (min/avg/max) = 12.33 | 12.33 | 12.33 Mbytes
   Step          Temp          E_pair         E_mol          TotEng         Press     
       258   2.0793855e-08 -2828.422       0             -2828.422       3500.248     
Loop time of 7.505e-07 on 2 procs for 0 steps with 687 atoms

66.6% CPU use with 2 MPI tasks x 1 OpenMP threads

MPI task timing breakdown:
Section |  min time  |  avg time  |  max time  |%varavg| %total
---------------------------------------------------------------
Pair    | 0          | 0          | 0          |   0.0 |  0.00
Neigh   | 0          | 0          | 0          |   0.0 |  0.00
Comm    | 0          | 0          | 0          |   0.0 |  0.00
Output  | 0          | 0          | 0          |   0.0 |  0.00
Modify  | 0          | 0          | 0          |   0.0 |  0.00
Other   |            | 7.505e-07  |            |       |100.00

Nlocal:          343.5 ave         344 max         343 min
Histogram: 1 0 0 0 0 0 0 0 0 1
Nghost:         2474.5 ave        2475 max        2474 min
Histogram: 1 0 0 0 0 0 0 0 0 1
Neighs:        28893.5 ave       29837 max       27950 min
Histogram: 1 0 0 0 0 0 0 0 0 1

Total # of neighbors = 57787
Ave neighs/atom = 84.114993
Neighbor list builds = 0
Dangerous builds = 0
compute V_1 all pair eam/fs 1
compute V_2 all pair eam/fs 2
variable V_1 equal (c_V_1/(0.000001+v_l1))
variable V_2 equal (c_V_2/(0.000001+v_l2))
variable dV equal v_V_2-v_V_1
run 0
WARNING: No fixes with time integration, atoms won't move (src/verlet.cpp:60)
Per MPI rank memory allocation (min/avg/max) = 12.33 | 12.33 | 12.33 Mbytes
   Step          Temp          E_pair         E_mol          TotEng         Press     
       258   2.0793855e-08 -2828.422       0             -2828.422       3500.248     
Loop time of 1.6035e-06 on 2 procs for 0 steps with 687 atoms

93.5% CPU use with 2 MPI tasks x 1 OpenMP threads

MPI task timing breakdown:
Section |  min time  |  avg time  |  max time  |%varavg| %total
---------------------------------------------------------------
Pair    | 0          | 0          | 0          |   0.0 |  0.00
Neigh   | 0          | 0          | 0          |   0.0 |  0.00
Comm    | 0          | 0          | 0          |   0.0 |  0.00
Output  | 0          | 0          | 0          |   0.0 |  0.00
Modify  | 0          | 0          | 0          |   0.0 |  0.00
Other   |            | 1.604e-06  |            |       |100.00

Nlocal:          343.5 ave         344 max         343 min
Histogram: 1 0 0 0 0 0 0 0 0 1
Nghost:         2474.5 ave        2475 max        2474 min
Histogram: 1 0 0 0 0 0 0 0 0 1
Neighs:        28893.5 ave       29837 max       27950 min
Histogram: 1 0 0 0 0 0 0 0 0 1

Total # of neighbors = 57787
Ave neighs/atom = 84.114993
Neighbor list builds = 0
Dangerous builds = 0
change_box all x scale 1.000000 y scale 1.000000 z scale 1.000000
Changing box ...
  orthogonal box = (0 0 0) to (19.987184 19.987184 19.987184)
  orthogonal box = (0 0 0) to (19.987184 19.987184 19.987184)
  orthogonal box = (0 0 0) to (19.987184 19.987184 19.987184)
run 0
WARNING: No fixes with time integration, atoms won't move (src/verlet.cpp:60)
Per MPI rank memory allocation (min/avg/max) = 12.33 | 12.33 | 12.33 Mbytes
   Step          Temp          E_pair         E_mol          TotEng         Press     
       258   2.0793855e-08 -2828.422       0             -2828.422       3500.248     
Loop time of 1.3545e-06 on 2 procs for 0 steps with 687 atoms

73.8% CPU use with 2 MPI tasks x 1 OpenMP threads

MPI task timing breakdown:
Section |  min time  |  avg time  |  max time  |%varavg| %total
---------------------------------------------------------------
Pair    | 0          | 0          | 0          |   0.0 |  0.00
Neigh   | 0          | 0          | 0          |   0.0 |  0.00
Comm    | 0          | 0          | 0          |   0.0 |  0.00
Output  | 0          | 0          | 0          |   0.0 |  0.00
Modify  | 0          | 0          | 0          |   0.0 |  0.00
Other   |            | 1.354e-06  |            |       |100.00

Nlocal:          343.5 ave         344 max         343 min
Histogram: 1 0 0 0 0 0 0 0 0 1
Nghost:         2474.5 ave        2475 max        2474 min
Histogram: 1 0 0 0 0 0 0 0 0 1
Neighs:        28893.5 ave       29837 max       27950 min
Histogram: 1 0 0 0 0 0 0 0 0 1

Total # of neighbors = 57787
Ave neighs/atom = 84.114993
Neighbor list builds = 0
Dangerous builds = 0
run 0
WARNING: No fixes with time integration, atoms won't move (src/verlet.cpp:60)
Per MPI rank memory allocation (min/avg/max) = 12.33 | 12.33 | 12.33 Mbytes
   Step          Temp          E_pair         E_mol          TotEng         Press     
       258   2.0793855e-08 -2828.422       0             -2828.422       3500.248     
Loop time of 8.335e-07 on 2 procs for 0 steps with 687 atoms

0.0% CPU use with 2 MPI tasks x 1 OpenMP threads

MPI task timing breakdown:
Section |  min time  |  avg time  |  max time  |%varavg| %total
---------------------------------------------------------------
Pair    | 0          | 0          | 0          |   0.0 |  0.00
Neigh   | 0          | 0          | 0          |   0.0 |  0.00
Comm    | 0          | 0          | 0          |   0.0 |  0.00
Output  | 0          | 0          | 0          |   0.0 |  0.00
Modify  | 0          | 0          | 0          |   0.0 |  0.00
Other   |            | 8.335e-07  |            |       |100.00

Nlocal:          343.5 ave         344 max         343 min
Histogram: 1 0 0 0 0 0 0 0 0 1
Nghost:         2474.5 ave        2475 max        2474 min
Histogram: 1 0 0 0 0 0 0 0 0 1
Neighs:        28893.5 ave       29837 max       27950 min
Histogram: 1 0 0 0 0 0 0 0 0 1

Total # of neighbors = 57787
Ave neighs/atom = 84.114993
Neighbor list builds = 0
Dangerous builds = 0
fix hp all pafi __pafipath 200.000000 0.05 274 overdamped 1 com 1
fix pafi compute name,style: __pafipath,property/atom
run 0
Per MPI rank memory allocation (min/avg/max) = 12.7 | 12.7 | 12.7 Mbytes
[...]

MPI task timing breakdown:
Section |  min time  |  avg time  |  max time  |%varavg| %total
---------------------------------------------------------------
Pair    | 0          | 0          | 0          |   0.0 |  0.00
Neigh   | 0          | 0          | 0          |   0.0 |  0.00
Comm    | 0          | 0          | 0          |   0.0 |  0.00
Output  | 0          | 0          | 0          |   0.0 |  0.00
Modify  | 0          | 0          | 0          |   0.0 |  0.00
Other   |            | 5.835e-07  |            |       |100.00

Nlocal:          343.5 ave         344 max         343 min
Histogram: 1 0 0 0 0 0 0 0 0 1
Nghost:         2474.5 ave        2475 max        2474 min
Histogram: 1 0 0 0 0 0 0 0 0 1
Neighs:        28893.5 ave       29837 max       27950 min
Histogram: 1 0 0 0 0 0 0 0 0 1

Total # of neighbors = 57787
Ave neighs/atom = 84.114993
Neighbor list builds = 0
Dangerous builds = 0
variable l1 equal 1.0-1.000000
variable l2 equal 0.0+1.000000
run 0
WARNING: No fixes with time integration, atoms won't move (src/verlet.cpp:60)
Per MPI rank memory allocation (min/avg/max) = 12.33 | 12.33 | 12.33 Mbytes
   Step          Temp          E_pair         E_mol          TotEng         Press     
       222   2.4210656e-05 -2828.4655      0             -2828.4655      3172.0894    
Loop time of 7.729e-06 on 2 procs for 0 steps with 687 atoms

25.9% CPU use with 2 MPI tasks x 1 OpenMP threads

MPI task timing breakdown:
Section |  min time  |  avg time  |  max time  |%varavg| %total
---------------------------------------------------------------
Pair    | 0          | 0          | 0          |   0.0 |  0.00
Neigh   | 0          | 0          | 0          |   0.0 |  0.00
Comm    | 0          | 0          | 0          |   0.0 |  0.00
Output  | 0          | 0          | 0          |   0.0 |  0.00
Modify  | 0          | 0          | 0          |   0.0 |  0.00
Other   |            | 7.729e-06  |            |       |100.00

Nlocal:          343.5 ave         344 max         343 min
Histogram: 1 0 0 0 0 0 0 0 0 1
Nghost:         2474.5 ave        2475 max        2474 min
Histogram: 1 0 0 0 0 0 0 0 0 1
Neighs:        28893.5 ave       29837 max       27950 min
Histogram: 1 0 0 0 0 0 0 0 0 1

Total # of neighbors = 57787
Ave neighs/atom = 84.114993
Neighbor list builds = 0
Dangerous builds = 0
fix escale1 all adapt 1 pair eam/fs:1 scale * * v_l1
fix escale2 all adapt 1 pair eam/fs:2 scale * * v_l2
run 0
WARNING: No fixes with time integration, atoms won't move (src/verlet.cpp:60)
Per MPI rank memory allocation (min/avg/max) = 12.33 | 12.33 | 12.33 Mbytes
   Step          Temp          E_pair         E_mol          TotEng         Press     
       222   2.4210656e-05 -2828.4872      0             -2828.4872      3008.01      
Loop time of 8.125e-07 on 2 procs for 0 steps with 687 atoms

184.6% CPU use with 2 MPI tasks x 1 OpenMP threads

MPI task timing breakdown:
Section |  min time  |  avg time  |  max time  |%varavg| %total
---------------------------------------------------------------
Pair    | 0          | 0          | 0          |   0.0 |  0.00
Neigh   | 0          | 0          | 0          |   0.0 |  0.00
Comm    | 0          | 0          | 0          |   0.0 |  0.00
Output  | 0          | 0          | 0          |   0.0 |  0.00
Modify  | 0          | 0          | 0          |   0.0 |  0.00
Other   |            | 8.125e-07  |            |       |100.00

Nlocal:          343.5 ave         344 max         343 min
Histogram: 1 0 0 0 0 0 0 0 0 1
Nghost:         2474.5 ave        2475 max        2474 min
Histogram: 1 0 0 0 0 0 0 0 0 1
Neighs:        28893.5 ave       29837 max       27950 min
Histogram: 1 0 0 0 0 0 0 0 0 1

Total # of neighbors = 57787
Ave neighs/atom = 84.114993
Neighbor list builds = 0
Dangerous builds = 0
compute V_1 all pair eam/fs 1
compute V_2 all pair eam/fs 2
variable V_1 equal (c_V_1/(0.000001+v_l1))
variable V_2 equal (c_V_2/(0.000001+v_l2))
variable dV equal v_V_2-v_V_1
run 0
WARNING: No fixes with time integration, atoms won't move (src/verlet.cpp:60)
Per MPI rank memory allocation (min/avg/max) = 12.33 | 12.33 | 12.33 Mbytes
   Step          Temp          E_pair         E_mol          TotEng         Press     
       222   2.4210656e-05 -2828.4872      0             -2828.4872      3008.01      
Loop time of 1.167e-06 on 2 procs for 0 steps with 687 atoms

171.4% CPU use with 2 MPI tasks x 1 OpenMP threads

MPI task timing breakdown:
Section |  min time  |  avg time  |  max time  |%varavg| %total
---------------------------------------------------------------
Pair    | 0          | 0          | 0          |   0.0 |  0.00
Neigh   | 0          | 0          | 0          |   0.0 |  0.00
Comm    | 0          | 0          | 0          |   0.0 |  0.00
Output  | 0          | 0          | 0          |   0.0 |  0.00
Modify  | 0          | 0          | 0          |   0.0 |  0.00
Other   |            | 1.167e-06  |            |       |100.00

Nlocal:          343.5 ave         344 max         343 min
Histogram: 1 0 0 0 0 0 0 0 0 1
Nghost:         2474.5 ave        2475 max        2474 min
Histogram: 1 0 0 0 0 0 0 0 0 1
Neighs:        28893.5 ave       29837 max       27950 min
Histogram: 1 0 0 0 0 0 0 0 0 1

Total # of neighbors = 57787
Ave neighs/atom = 84.114993
Neighbor list builds = 0
Dangerous builds = 0
change_box all x scale 1.000000 y scale 1.000000 z scale 1.000000
Changing box ...
  orthogonal box = (0 0 0) to (19.987184 19.987184 19.987184)
  orthogonal box = (0 0 0) to (19.987184 19.987184 19.987184)
  orthogonal box = (0 0 0) to (19.987184 19.987184 19.987184)
run 0
WARNING: No fixes with time integration, atoms won't move (src/verlet.cpp:60)
Per MPI rank memory allocation (min/avg/max) = 12.33 | 12.33 | 12.33 Mbytes
   Step          Temp          E_pair         E_mol          TotEng         Press     
       222   2.4210656e-05 -2828.4872      0             -2828.4872      3008.01      
Loop time of 8.125e-07 on 2 procs for 0 steps with 687 atoms

123.1% CPU use with 2 MPI tasks x 1 OpenMP threads

MPI task timing breakdown:
Section |  min time  |  avg time  |  max time  |%varavg| %total
---------------------------------------------------------------
Pair    | 0          | 0          | 0          |   0.0 |  0.00
Neigh   | 0          | 0          | 0          |   0.0 |  0.00
Comm    | 0          | 0          | 0          |   0.0 |  0.00
Output  | 0          | 0          | 0          |   0.0 |  0.00
Modify  | 0          | 0          | 0          |   0.0 |  0.00
Other   |            | 8.125e-07  |            |       |100.00

Nlocal:          343.5 ave         344 max         343 min
Histogram: 1 0 0 0 0 0 0 0 0 1
Nghost:         2474.5 ave        2475 max        2474 min
Histogram: 1 0 0 0 0 0 0 0 0 1
Neighs:        28893.5 ave       29837 max       27950 min
Histogram: 1 0 0 0 0 0 0 0 0 1

Total # of neighbors = 57787
Ave neighs/atom = 84.114993
Neighbor list builds = 0
Dangerous builds = 0
run 0
WARNING: No fixes with time integration, atoms won't move (src/verlet.cpp:60)
Per MPI rank memory allocation (min/avg/max) = 12.33 | 12.33 | 12.33 Mbytes
   Step          Temp          E_pair         E_mol          TotEng         Press     
       222   2.4210656e-05 -2828.4872      0             -2828.4872      3008.01      
Loop time of 1.25e-06 on 2 procs for 0 steps with 687 atoms

160.0% CPU use with 2 MPI tasks x 1 OpenMP threads

MPI task timing breakdown:
Section |  min time  |  avg time  |  max time  |%varavg| %total
---------------------------------------------------------------
Pair    | 0          | 0          | 0          |   0.0 |  0.00
Neigh   | 0          | 0          | 0          |   0.0 |  0.00
Comm    | 0          | 0          | 0          |   0.0 |  0.00
Output  | 0          | 0          | 0          |   0.0 |  0.00
Modify  | 0          | 0          | 0          |   0.0 |  0.00
Other   |            | 1.25e-06   |            |       |100.00

Nlocal:          343.5 ave         344 max         343 min
Histogram: 1 0 0 0 0 0 0 0 0 1
Nghost:         2474.5 ave        2475 max        2474 min
Histogram: 1 0 0 0 0 0 0 0 0 1
Neighs:        28893.5 ave       29837 max       27950 min
Histogram: 1 0 0 0 0 0 0 0 0 1

Total # of neighbors = 57787
Ave neighs/atom = 84.114993
Neighbor list builds = 0
Dangerous builds = 0
fix hp all pafi __pafipath 200.000000 0.05 274 overdamped 1 com 1
fix pafi compute name,style: __pafipath,property/atom
run 0
Per MPI rank memory allocation (min/avg/max) = 12.7 | 12.7 | 12.7 Mbytes
   Step          Temp          E_pair         E_mol          TotEng         Press     
       222   2.4210656e-05 -2828.4872      0             -2828.4872      3008.01      
Loop time of 1.1035e-06 on 2 procs for 0 steps with 687 atoms

90.6% CPU use with 2 MPI tasks x 1 OpenMP threads

MPI task timing breakdown:
Section |  min time  |  avg time  |  max time  |%varavg| %total
---------------------------------------------------------------
Pair    | 0          | 0          | 0          |   0.0 |  0.00
Neigh   | 0          | 0          | 0          |   0.0 |  0.00
Comm    | 0          | 0          | 0          |   0.0 |  0.00
Output  | 0          | 0          | 0          |   0.0 |  0.00
Modify  | 0          | 0          | 0          |   0.0 |  0.00
Other   |            | 1.103e-06  |            |       |100.00

Nlocal:          343.5 ave         344 max         343 min
Histogram: 1 0 0 0 0 0 0 0 0 1
Nghost:         2474.5 ave        2475 max        2474 min
Histogram: 1 0 0 0 0 0 0 0 0 1
Neighs:        28893.5 ave       29837 max       27950 min
Histogram: 1 0 0 0 0 0 0 0 0 1

Total # of neighbors = 57787
Ave neighs/atom = 84.114993
Neighbor list builds = 0
Dangerous builds = 0
min_style fire
minimize 0 0.001 10000 10000
Switching to 'neigh_modify every 1 delay 0 check yes' setting during minimization
  Parameters for fire:
    dmax  delaystep dtgrow dtshrink alpha0 alphashrink tmax tmin   integrator   halfstepback   abcfire  
     0.1     20      1.1     0.5     0.25     0.99      10  0.02 eulerimplicit      yes          no     
Per MPI rank memory allocation (min/avg/max) = 12.7 | 12.7 | 12.7 Mbytes
   Step          Temp          E_pair         E_mol          TotEng         Press     
       222   0             -2828.4872      0             -2828.4872      3008.0097    
       311   6.7672565e-06 -2828.5779      0             -2828.5779      3168.9916    
Loop time of 0.100331 on 2 procs for 89 steps with 687 atoms

94.0% CPU use with 2 MPI tasks x 1 OpenMP threads

Minimization stats:
  Stopping criterion = force tolerance
  Energy initial, next-to-last, final = 
     -2828.48720807519  -2828.57788716752  -2828.57788722635
  Force two-norm initial, final = 1.2626411 0.00093153651
  Force max component initial, final = 0.37037431 0.00014799138
  Final line search alpha, max atom move = 0 0
  Iterations, force evaluations = 89 92

MPI task timing breakdown:
Section |  min time  |  avg time  |  max time  |%varavg| %total
---------------------------------------------------------------
Pair    | 0.091599   | 0.09221    | 0.09282    |   0.2 | 91.91
Neigh   | 0          | 0          | 0          |   0.0 |  0.00
Comm    | 0.0028095  | 0.0032912  | 0.0037728  |   0.8 |  3.28
Output  | 0          | 0          | 0          |   0.0 |  0.00
Modify  | 0.0022704  | 0.00237    | 0.0024696  |   0.2 |  2.36
Other   |            | 0.00246    |            |       |  2.45

Nlocal:          343.5 ave         344 max         343 min
Histogram: 1 0 0 0 0 0 0 0 0 1
Nghost:         2474.5 ave        2475 max        2474 min
Histogram: 1 0 0 0 0 0 0 0 0 1
Neighs:        28893.5 ave       29837 max       27950 min
Histogram: 1 0 0 0 0 0 0 0 0 1

Total # of neighbors = 57787
Ave neighs/atom = 84.114993
Neighbor list builds = 0
Dangerous builds = 0
run 0
Per MPI rank memory allocation (min/avg/max) = 12.7 | 12.7 | 12.7 Mbytes
   Step          Temp          E_pair         E_mol          TotEng         Press     
       311   6.7672565e-06 -2828.5779      0             -2828.5779      3168.9916    
Loop time of 1.5e-06 on 2 procs for 0 steps with 687 atoms

100.0% CPU use with 2 MPI tasks x 1 OpenMP threads

MPI task timing breakdown:
Section |  min time  |  avg time  |  max time  |%varavg| %total
---------------------------------------------------------------
Pair    | 0          | 0          | 0          |   0.0 |  0.00
Neigh   | 0          | 0          | 0          |   0.0 |  0.00
Comm    | 0          | 0          | 0          |   0.0 |  0.00
Output  | 0          | 0          | 0          |   0.0 |  0.00
Modify  | 0          | 0          | 0          |   0.0 |  0.00
Other   |            | 1.5e-06    |            |       |100.00

Nlocal:          343.5 ave         348 max         339 min
Histogram: 1 0 0 0 0 0 0 0 0 1
Nghost:         2474.5 ave        2479 max        2470 min
Histogram: 1 0 0 0 0 0 0 0 0 1
Neighs:        28893.5 ave       30283 max       27504 min
Histogram: 1 0 0 0 0 0 0 0 0 1

Total # of neighbors = 57787
Ave neighs/atom = 84.114993
Neighbor list builds = 0
Dangerous builds = 0
reset_timestep 0
fix ae all ave/time 1 50 100 c_pe
run 100
Per MPI rank memory allocation (min/avg/max) = 12.7 | 12.7 | 12.7 Mbytes
   Step          Temp          E_pair         E_mol          TotEng         Press     
         0   6.7672565e-06 -2828.5779      0             -2828.5779      3168.9916    
       100   0             -2809.7515      0             -2809.7515      3928.971     
Loop time of 0.127749 on 2 procs for 100 steps with 687 atoms

Performance: 67.633 ns/day, 0.355 hours/ns, 782.787 timesteps/s, 537.775 katom-step/s
94.5% CPU use with 2 MPI tasks x 1 OpenMP threads

MPI task timing breakdown:
Section |  min time  |  avg time  |  max time  |%varavg| %total
---------------------------------------------------------------
Pair    | 0.11637    | 0.11733    | 0.1183     |   0.3 | 91.85
Neigh   | 0          | 0          | 0          |   0.0 |  0.00
Comm    | 0.0032601  | 0.0040595  | 0.0048588  |   1.3 |  3.18
Output  | 1.1583e-05 | 1.1833e-05 | 1.2083e-05 |   0.0 |  0.01
Modify  | 0.0059044  | 0.0060593  | 0.0062143  |   0.2 |  4.74
Other   |            | 0.0002849  |            |       |  0.22

Nlocal:          343.5 ave         348 max         339 min
Histogram: 1 0 0 0 0 0 0 0 0 1
Nghost:         2474.5 ave        2479 max        2470 min
Histogram: 1 0 0 0 0 0 0 0 0 1
Neighs:        28893.5 ave       30283 max       27504 min
Histogram: 1 0 0 0 0 0 0 0 0 1

Total # of neighbors = 57787
Ave neighs/atom = 84.114993
Neighbor list builds = 0
Dangerous builds = 0
unfix ae
run 0
Per MPI rank memory allocation (min/avg/max) = 12.7 | 12.7 | 12.7 Mbytes
   Step          Temp          E_pair         E_mol          TotEng         Press     
       100   0             -2809.7515      0             -2809.7515      3928.971     
Loop time of 1.2085e-06 on 2 procs for 0 steps with 687 atoms

165.5% CPU use with 2 MPI tasks x 1 OpenMP threads

MPI task timing breakdown:
Section |  min time  |  avg time  |  max time  |%varavg| %total
---------------------------------------------------------------
Pair    | 0          | 0          | 0          |   0.0 |  0.00
Neigh   | 0          | 0          | 0          |   0.0 |  0.00
Comm    | 0          | 0          | 0          |   0.0 |  0.00
Output  | 0          | 0          | 0          |   0.0 |  0.00
Modify  | 0          | 0          | 0          |   0.0 |  0.00
Other   |            | 1.209e-06  |            |       |100.00

Nlocal:          343.5 ave         344 max         343 min
Histogram: 1 0 0 0 0 0 0 0 0 1
Nghost:         2474.5 ave        2475 max        2474 min
Histogram: 1 0 0 0 0 0 0 0 0 1
Neighs:          28897 ave       30082 max       27712 min
Histogram: 1 0 0 0 0 0 0 0 0 1

Total # of neighbors = 57794
Ave neighs/atom = 84.125182
Neighbor list builds = 0
Dangerous builds = 0
reset_timestep 0
fix ae all ave/time 1 100 100 c_pe
fix af all ave/time 1 100 100 f_hp[1] f_hp[2] f_hp[3] f_hp[4]
fix dV all ave/time 1 100 100 v_dV
run 0
Per MPI rank memory allocation (min/avg/max) = 12.7 | 12.7 | 12.7 Mbytes
   Step          Temp          E_pair         E_mol          TotEng         Press     
         0   0             -2809.7515      0             -2809.7515      3928.971     
Loop time of 7.08e-07 on 2 procs for 0 steps with 687 atoms

141.2% CPU use with 2 MPI tasks x 1 OpenMP threads

MPI task timing breakdown:
Section |  min time  |  avg time  |  max time  |%varavg| %total
---------------------------------------------------------------
Pair    | 0          | 0          | 0          |   0.0 |  0.00
Neigh   | 0          | 0          | 0          |   0.0 |  0.00
Comm    | 0          | 0          | 0          |   0.0 |  0.00
Output  | 0          | 0          | 0          |   0.0 |  0.00
Modify  | 0          | 0          | 0          |   0.0 |  0.00
Other   |            | 7.08e-07   |            |       |100.00

Nlocal:          343.5 ave         344 max         343 min
Histogram: 1 0 0 0 0 0 0 0 0 1
Nghost:         2474.5 ave        2475 max        2474 min
Histogram: 1 0 0 0 0 0 0 0 0 1
Neighs:          28897 ave       30082 max       27712 min
Histogram: 1 0 0 0 0 0 0 0 0 1

Total # of neighbors = 57794
Ave neighs/atom = 84.125182
Neighbor list builds = 0
Dangerous builds = 0
run 100
Per MPI rank memory allocation (min/avg/max) = 12.7 | 12.7 | 12.7 Mbytes
   Step          Temp          E_pair         E_mol          TotEng         Press     
         0   0             -2809.7515      0             -2809.7515      3928.971     
       100   0             -2808.9429      0             -2808.9429      4096.7684    
Loop time of 0.157106 on 2 procs for 100 steps with 687 atoms

Performance: 54.995 ns/day, 0.436 hours/ns, 636.511 timesteps/s, 437.283 katom-step/s
93.7% CPU use with 2 MPI tasks x 1 OpenMP threads

MPI task timing breakdown:
Section |  min time  |  avg time  |  max time  |%varavg| %total
---------------------------------------------------------------
Pair    | 0.14204    | 0.14304    | 0.14405    |   0.3 | 91.05
Neigh   | 0          | 0          | 0          |   0.0 |  0.00
Comm    | 0.0042705  | 0.0052281  | 0.0061856  |   1.3 |  3.33
Output  | 9.875e-06  | 1.0146e-05 | 1.0416e-05 |   0.0 |  0.01
Modify  | 0.0083823  | 0.008441   | 0.0084997  |   0.1 |  5.37
Other   |            | 0.0003847  |            |       |  0.24

Nlocal:          343.5 ave         344 max         343 min
Histogram: 1 0 0 0 0 0 0 0 0 1
Nghost:         2474.5 ave        2475 max        2474 min
Histogram: 1 0 0 0 0 0 0 0 0 1
Neighs:          28897 ave       30082 max       27712 min
Histogram: 1 0 0 0 0 0 0 0 0 1

Total # of neighbors = 57794
Ave neighs/atom = 84.125182
Neighbor list builds = 0
Dangerous builds = 0
unfix dV
run 0
Per MPI rank memory allocation (min/avg/max) = 12.7 | 12.7 | 12.7 Mbytes
   Step          Temp          E_pair         E_mol          TotEng         Press     
       100   0             -2808.9429      0             -2808.9429      4096.7684    
Loop time of 7.71e-07 on 2 procs for 0 steps with 687 atoms

194.6% CPU use with 2 MPI tasks x 1 OpenMP threads

MPI task timing breakdown:
Section |  min time  |  avg time  |  max time  |%varavg| %total
---------------------------------------------------------------
Pair    | 0          | 0          | 0          |   0.0 |  0.00
Neigh   | 0          | 0          | 0          |   0.0 |  0.00
Comm    | 0          | 0          | 0          |   0.0 |  0.00
Output  | 0          | 0          | 0          |   0.0 |  0.00
Modify  | 0          | 0          | 0          |   0.0 |  0.00
Other   |            | 7.71e-07   |            |       |100.00

Nlocal:          343.5 ave         352 max         335 min
Histogram: 1 0 0 0 0 0 0 0 0 1
Nghost:         2474.5 ave        2483 max        2466 min
Histogram: 1 0 0 0 0 0 0 0 0 1
Neighs:          28893 ave       29268 max       28518 min
Histogram: 1 0 0 0 0 0 0 0 0 1

Total # of neighbors = 57786
Ave neighs/atom = 84.113537
Neighbor list builds = 0
Dangerous builds = 0
